 Entering Gaussian System, Link 0=g16
 Input=MK.com
 Output=MK.log
 Initial command:
 /sw/linux/gaussian/g16/g16/l1.exe "/usr/scratch/link/Gau-24798.inp" -scrdir="/usr/scratch/link/"
 Entering Link 1 = /sw/linux/gaussian/g16/g16/l1.exe PID=     24800.
  
 Copyright (c) 1988-2017, Gaussian, Inc.  All Rights Reserved.
  
 This is part of the Gaussian(R) 16 program.  It is based on
 the Gaussian(R) 09 system (copyright 2009, Gaussian, Inc.),
 the Gaussian(R) 03 system (copyright 2003, Gaussian, Inc.),
 the Gaussian(R) 98 system (copyright 1998, Gaussian, Inc.),
 the Gaussian(R) 94 system (copyright 1995, Gaussian, Inc.),
 the Gaussian 92(TM) system (copyright 1992, Gaussian, Inc.),
 the Gaussian 90(TM) system (copyright 1990, Gaussian, Inc.),
 the Gaussian 88(TM) system (copyright 1988, Gaussian, Inc.),
 the Gaussian 86(TM) system (copyright 1986, Carnegie Mellon
 University), and the Gaussian 82(TM) system (copyright 1983,
 Carnegie Mellon University). Gaussian is a federally registered
 trademark of Gaussian, Inc.
  
 This software contains proprietary and confidential information,
 including trade secrets, belonging to Gaussian, Inc.
  
 This software is provided under written license and may be
 used, copied, transmitted, or stored only in accord with that
 written license.
  
 The following legend is applicable only to US Government
 contracts under FAR:
  
                    RESTRICTED RIGHTS LEGEND
  
 Use, reproduction and disclosure by the US Government is
 subject to restrictions as set forth in subparagraphs (a)
 and (c) of the Commercial Computer Software - Restricted
 Rights clause in FAR 52.227-19.
  
 Gaussian, Inc.
 340 Quinnipiac St., Bldg. 40, Wallingford CT 06492
  
  
 ---------------------------------------------------------------
 Warning -- This program may not be used in any manner that
 competes with the business of Gaussian, Inc. or will provide
 assistance to any competitor of Gaussian, Inc.  The licensee
 of this program is prohibited from giving any competitor of
 Gaussian, Inc. access to this program.  By using this program,
 the user acknowledges that Gaussian, Inc. is engaged in the
 business of creating and licensing software in the field of
 computational chemistry and represents and warrants to the
 licensee that it is not a competitor of Gaussian, Inc. and that
 it will not use this program in any manner prohibited above.
 ---------------------------------------------------------------
  

 Cite this work as:
 Gaussian 16, Revision B.01,
 M. J. Frisch, G. W. Trucks, H. B. Schlegel, G. E. Scuseria, 
 M. A. Robb, J. R. Cheeseman, G. Scalmani, V. Barone, 
 G. A. Petersson, H. Nakatsuji, X. Li, M. Caricato, A. V. Marenich, 
 J. Bloino, B. G. Janesko, R. Gomperts, B. Mennucci, H. P. Hratchian, 
 J. V. Ortiz, A. F. Izmaylov, J. L. Sonnenberg, D. Williams-Young, 
 F. Ding, F. Lipparini, F. Egidi, J. Goings, B. Peng, A. Petrone, 
 T. Henderson, D. Ranasinghe, V. G. Zakrzewski, J. Gao, N. Rega, 
 G. Zheng, W. Liang, M. Hada, M. Ehara, K. Toyota, R. Fukuda, 
 J. Hasegawa, M. Ishida, T. Nakajima, Y. Honda, O. Kitao, H. Nakai, 
 T. Vreven, K. Throssell, J. A. Montgomery, Jr., J. E. Peralta, 
 F. Ogliaro, M. J. Bearpark, J. J. Heyd, E. N. Brothers, K. N. Kudin, 
 V. N. Staroverov, T. A. Keith, R. Kobayashi, J. Normand, 
 K. Raghavachari, A. P. Rendell, J. C. Burant, S. S. Iyengar, 
 J. Tomasi, M. Cossi, J. M. Millam, M. Klene, C. Adamo, R. Cammi, 
 J. W. Ochterski, R. L. Martin, K. Morokuma, O. Farkas, 
 J. B. Foresman, and D. J. Fox, Gaussian, Inc., Wallingford CT, 2016.
 
 ******************************************
 Gaussian 16:  ES64L-G16RevB.01 20-Dec-2017
                15-Jun-2021 
 ******************************************
 %mem=60000MB
 -----------------------------------
 #P wb97xd/6-311g(d,p) nosymm pop=MK
 -----------------------------------
 1/38=1,172=1/1;
 2/12=2,15=1,17=6,18=5,40=1/2;
 3/5=4,6=6,7=101,11=2,25=1,30=1,74=-58/1,2,3;
 4//1;
 5/5=2,38=5/2;
 6/7=2,8=2,9=2,10=2,15=8,20=1,28=1/1,2;
 99/5=1,9=1/99;
 Leave Link    1 at Tue Jun 15 14:46:31 2021, MaxMem=  7864320000 cpu:               0.0 elap:               0.0
 (Enter /sw/linux/gaussian/g16/g16/l101.exe)
 -------------------
 Title Card Required
 -------------------
 Symbolic Z-matrix:
 Charge =  0 Multiplicity = 1
 C                    -0.06662   0.3666    0.13956 
 C                     1.32689   0.33743   0.13917 
 C                     2.02581   1.5434    0.13865 
 C                     1.35434   2.76481   0.13807 
 C                    -0.03949   2.76711   0.13793 
 C                    -0.76145   1.57489   0.13859 
 H                    -0.62001  -0.56634   0.14005 
 H                     3.11046   1.53073   0.13825 
 H                    -0.57091   3.71274   0.1369 
 C                     1.71751   5.10365   0.95643 
 C                     2.10952   4.04319   0.13778 
 C                     3.23065   4.20322  -0.67603 
 C                     3.95783   5.39318  -0.68641 
 C                     3.54612   6.44033   0.13993 
 C                     2.43327   6.29244   0.95508 
 H                     0.86123   4.98761   1.61146 
 H                     3.54301   3.38424  -1.31543 
 H                     4.08674   7.38037   0.12616 
 H                     2.12047   7.11045   1.59394 
 C                     6.31471   6.14907  -1.1197 
 C                     5.14103   5.54374  -1.56554 
 C                     5.12436   5.08542  -2.8858 
 N                     6.1499    5.18224  -3.726 
 C                     7.26143   5.76023  -3.2746 
 C                     7.39083   6.2617   -1.98579 
 H                     6.38686   6.50962  -0.09903 
 H                     4.22206   4.6296   -3.28578 
 H                     8.08666   5.82488  -3.97795 
 H                     8.31914   6.72059  -1.66765 
 C                     3.17073  -1.1472    0.95725 
 C                     2.05601  -0.956     0.13917 
 C                     1.63267  -2.00701  -0.6739 
 C                     2.29834  -3.23242  -0.68371 
 C                     3.41144  -3.39992   0.14203 
 C                     3.84135  -2.36208   0.95617 
 H                     3.49943  -0.34749   1.6116 
 H                     0.76709  -1.86769  -1.31304 
 H                     3.95432  -4.33866   0.12862 
 H                     4.70641  -2.50056   1.59462 
 C                     1.77148  -5.65133  -1.11312 
 C                     1.83514  -4.33298  -1.56103 
 C                     1.44546  -4.09098  -2.88125 
 N                     1.01474  -5.0284   -3.71957 
 C                     0.95868  -6.27927  -3.26627 
 C                     1.32907  -6.64046  -1.97724 
 H                     2.0483   -5.89282  -0.09234 
 H                     1.50243  -3.08232  -3.28282 
 H                     0.60054  -7.02691  -3.96815 
 H                     1.2615   -7.67327  -1.65742 
 C                    -2.96918   0.72379   0.95979 
 C                    -2.24614   1.59019   0.13822 
 C                    -2.94454   2.47891  -0.67862 
 C                    -4.33862   2.5149   -0.68892 
 C                    -5.04038   1.63826   0.1405 
 C                    -4.3566    0.75053   0.95854 
 H                    -2.44098   0.04198   1.61698 
 H                    -2.39085   3.15628  -1.32031 
 H                    -6.12479   1.63746   0.12688 
 H                    -4.90914   0.07333   1.5998 
 C                    -6.17004   4.17853  -1.12715 
 C                    -5.05976   3.46225  -1.57095 
 C                    -4.65428   3.67266  -2.89185 
 N                    -5.24997   4.51067  -3.73442 
 C                    -6.30549   5.18681  -3.2849 
 C                    -6.80462   5.05239  -1.99573 
 H                    -6.51844   4.06406  -0.10613 
 H                    -3.80896   3.11708  -3.29018 
 H                    -6.77321   5.86776  -3.99017 
 H                    -7.66552   5.62881  -1.67927 
 
 ITRead=  0  0  0  0  0  0  0  0  0  0  0  0  0  0  0  0  0  0  0  0
 ITRead=  0  0  0  0  0  0  0  0  0  0  0  0  0  0  0  0  0  0  0  0
 ITRead=  0  0  0  0  0  0  0  0  0  0  0  0  0  0  0  0  0  0  0  0
 ITRead=  0  0  0  0  0  0  0  0  0
 MicOpt= -1 -1 -1 -1 -1 -1 -1 -1 -1 -1 -1 -1 -1 -1 -1 -1 -1 -1 -1 -1
 MicOpt= -1 -1 -1 -1 -1 -1 -1 -1 -1 -1 -1 -1 -1 -1 -1 -1 -1 -1 -1 -1
 MicOpt= -1 -1 -1 -1 -1 -1 -1 -1 -1 -1 -1 -1 -1 -1 -1 -1 -1 -1 -1 -1
 MicOpt= -1 -1 -1 -1 -1 -1 -1 -1 -1
 NAtoms=     69 NQM=       69 NQMF=       0 NMMI=      0 NMMIF=      0
                NMic=       0 NMicF=      0.
                    Isotopes and Nuclear Properties:
 (Nuclear quadrupole moments (NQMom) in fm**2, nuclear magnetic moments (NMagM)
  in nuclear magnetons)

  Atom         1           2           3           4           5           6           7           8           9          10
 IAtWgt=          12          12          12          12          12          12           1           1           1          12
 AtmWgt=  12.0000000  12.0000000  12.0000000  12.0000000  12.0000000  12.0000000   1.0078250   1.0078250   1.0078250  12.0000000
 NucSpn=           0           0           0           0           0           0           1           1           1           0
 AtZEff=   0.0000000   0.0000000   0.0000000   0.0000000   0.0000000   0.0000000   0.0000000   0.0000000   0.0000000   0.0000000
 NQMom=    0.0000000   0.0000000   0.0000000   0.0000000   0.0000000   0.0000000   0.0000000   0.0000000   0.0000000   0.0000000
 NMagM=    0.0000000   0.0000000   0.0000000   0.0000000   0.0000000   0.0000000   2.7928460   2.7928460   2.7928460   0.0000000
 AtZNuc=   6.0000000   6.0000000   6.0000000   6.0000000   6.0000000   6.0000000   1.0000000   1.0000000   1.0000000   6.0000000

  Atom        11          12          13          14          15          16          17          18          19          20
 IAtWgt=          12          12          12          12          12           1           1           1           1          12
 AtmWgt=  12.0000000  12.0000000  12.0000000  12.0000000  12.0000000   1.0078250   1.0078250   1.0078250   1.0078250  12.0000000
 NucSpn=           0           0           0           0           0           1           1           1           1           0
 AtZEff=   0.0000000   0.0000000   0.0000000   0.0000000   0.0000000   0.0000000   0.0000000   0.0000000   0.0000000   0.0000000
 NQMom=    0.0000000   0.0000000   0.0000000   0.0000000   0.0000000   0.0000000   0.0000000   0.0000000   0.0000000   0.0000000
 NMagM=    0.0000000   0.0000000   0.0000000   0.0000000   0.0000000   2.7928460   2.7928460   2.7928460   2.7928460   0.0000000
 AtZNuc=   6.0000000   6.0000000   6.0000000   6.0000000   6.0000000   1.0000000   1.0000000   1.0000000   1.0000000   6.0000000

  Atom        21          22          23          24          25          26          27          28          29          30
 IAtWgt=          12          12          14          12          12           1           1           1           1          12
 AtmWgt=  12.0000000  12.0000000  14.0030740  12.0000000  12.0000000   1.0078250   1.0078250   1.0078250   1.0078250  12.0000000
 NucSpn=           0           0           2           0           0           1           1           1           1           0
 AtZEff=   0.0000000   0.0000000   0.0000000   0.0000000   0.0000000   0.0000000   0.0000000   0.0000000   0.0000000   0.0000000
 NQMom=    0.0000000   0.0000000   2.0440000   0.0000000   0.0000000   0.0000000   0.0000000   0.0000000   0.0000000   0.0000000
 NMagM=    0.0000000   0.0000000   0.4037610   0.0000000   0.0000000   2.7928460   2.7928460   2.7928460   2.7928460   0.0000000
 AtZNuc=   6.0000000   6.0000000   7.0000000   6.0000000   6.0000000   1.0000000   1.0000000   1.0000000   1.0000000   6.0000000

  Atom        31          32          33          34          35          36          37          38          39          40
 IAtWgt=          12          12          12          12          12           1           1           1           1          12
 AtmWgt=  12.0000000  12.0000000  12.0000000  12.0000000  12.0000000   1.0078250   1.0078250   1.0078250   1.0078250  12.0000000
 NucSpn=           0           0           0           0           0           1           1           1           1           0
 AtZEff=   0.0000000   0.0000000   0.0000000   0.0000000   0.0000000   0.0000000   0.0000000   0.0000000   0.0000000   0.0000000
 NQMom=    0.0000000   0.0000000   0.0000000   0.0000000   0.0000000   0.0000000   0.0000000   0.0000000   0.0000000   0.0000000
 NMagM=    0.0000000   0.0000000   0.0000000   0.0000000   0.0000000   2.7928460   2.7928460   2.7928460   2.7928460   0.0000000
 AtZNuc=   6.0000000   6.0000000   6.0000000   6.0000000   6.0000000   1.0000000   1.0000000   1.0000000   1.0000000   6.0000000

  Atom        41          42          43          44          45          46          47          48          49          50
 IAtWgt=          12          12          14          12          12           1           1           1           1          12
 AtmWgt=  12.0000000  12.0000000  14.0030740  12.0000000  12.0000000   1.0078250   1.0078250   1.0078250   1.0078250  12.0000000
 NucSpn=           0           0           2           0           0           1           1           1           1           0
 AtZEff=   0.0000000   0.0000000   0.0000000   0.0000000   0.0000000   0.0000000   0.0000000   0.0000000   0.0000000   0.0000000
 NQMom=    0.0000000   0.0000000   2.0440000   0.0000000   0.0000000   0.0000000   0.0000000   0.0000000   0.0000000   0.0000000
 NMagM=    0.0000000   0.0000000   0.4037610   0.0000000   0.0000000   2.7928460   2.7928460   2.7928460   2.7928460   0.0000000
 AtZNuc=   6.0000000   6.0000000   7.0000000   6.0000000   6.0000000   1.0000000   1.0000000   1.0000000   1.0000000   6.0000000

  Atom        51          52          53          54          55          56          57          58          59          60
 IAtWgt=          12          12          12          12          12           1           1           1           1          12
 AtmWgt=  12.0000000  12.0000000  12.0000000  12.0000000  12.0000000   1.0078250   1.0078250   1.0078250   1.0078250  12.0000000
 NucSpn=           0           0           0           0           0           1           1           1           1           0
 AtZEff=   0.0000000   0.0000000   0.0000000   0.0000000   0.0000000   0.0000000   0.0000000   0.0000000   0.0000000   0.0000000
 NQMom=    0.0000000   0.0000000   0.0000000   0.0000000   0.0000000   0.0000000   0.0000000   0.0000000   0.0000000   0.0000000
 NMagM=    0.0000000   0.0000000   0.0000000   0.0000000   0.0000000   2.7928460   2.7928460   2.7928460   2.7928460   0.0000000
 AtZNuc=   6.0000000   6.0000000   6.0000000   6.0000000   6.0000000   1.0000000   1.0000000   1.0000000   1.0000000   6.0000000

  Atom        61          62          63          64          65          66          67          68          69
 IAtWgt=          12          12          14          12          12           1           1           1           1
 AtmWgt=  12.0000000  12.0000000  14.0030740  12.0000000  12.0000000   1.0078250   1.0078250   1.0078250   1.0078250
 NucSpn=           0           0           2           0           0           1           1           1           1
 AtZEff=   0.0000000   0.0000000   0.0000000   0.0000000   0.0000000   0.0000000   0.0000000   0.0000000   0.0000000
 NQMom=    0.0000000   0.0000000   2.0440000   0.0000000   0.0000000   0.0000000   0.0000000   0.0000000   0.0000000
 NMagM=    0.0000000   0.0000000   0.4037610   0.0000000   0.0000000   2.7928460   2.7928460   2.7928460   2.7928460
 AtZNuc=   6.0000000   6.0000000   7.0000000   6.0000000   6.0000000   1.0000000   1.0000000   1.0000000   1.0000000
 Leave Link  101 at Tue Jun 15 14:46:31 2021, MaxMem=  7864320000 cpu:               0.2 elap:               0.2
 (Enter /sw/linux/gaussian/g16/g16/l202.exe)
 Symmetry turned off by external request.
 Stoichiometry    C39H27N3
 Framework group  C1[X(C39H27N3)]
 Deg. of freedom   201
 Full point group                 C1      NOp   1
                          Input orientation:                          
 ---------------------------------------------------------------------
 Center     Atomic      Atomic             Coordinates (Angstroms)
 Number     Number       Type             X           Y           Z
 ---------------------------------------------------------------------
      1          6           0       -0.066620    0.366600    0.139560
      2          6           0        1.326890    0.337430    0.139170
      3          6           0        2.025810    1.543400    0.138650
      4          6           0        1.354340    2.764810    0.138070
      5          6           0       -0.039490    2.767110    0.137930
      6          6           0       -0.761450    1.574890    0.138590
      7          1           0       -0.620010   -0.566340    0.140050
      8          1           0        3.110460    1.530730    0.138250
      9          1           0       -0.570910    3.712740    0.136900
     10          6           0        1.717510    5.103650    0.956430
     11          6           0        2.109520    4.043190    0.137780
     12          6           0        3.230650    4.203220   -0.676030
     13          6           0        3.957830    5.393180   -0.686410
     14          6           0        3.546120    6.440330    0.139930
     15          6           0        2.433270    6.292440    0.955080
     16          1           0        0.861230    4.987610    1.611460
     17          1           0        3.543010    3.384240   -1.315430
     18          1           0        4.086740    7.380370    0.126160
     19          1           0        2.120470    7.110450    1.593940
     20          6           0        6.314710    6.149070   -1.119700
     21          6           0        5.141030    5.543740   -1.565540
     22          6           0        5.124360    5.085420   -2.885800
     23          7           0        6.149900    5.182240   -3.726000
     24          6           0        7.261430    5.760230   -3.274600
     25          6           0        7.390830    6.261700   -1.985790
     26          1           0        6.386860    6.509620   -0.099030
     27          1           0        4.222060    4.629600   -3.285780
     28          1           0        8.086660    5.824880   -3.977950
     29          1           0        8.319140    6.720590   -1.667650
     30          6           0        3.170730   -1.147200    0.957250
     31          6           0        2.056010   -0.956000    0.139170
     32          6           0        1.632670   -2.007010   -0.673900
     33          6           0        2.298340   -3.232420   -0.683710
     34          6           0        3.411440   -3.399920    0.142030
     35          6           0        3.841350   -2.362080    0.956170
     36          1           0        3.499430   -0.347490    1.611600
     37          1           0        0.767090   -1.867690   -1.313040
     38          1           0        3.954320   -4.338660    0.128620
     39          1           0        4.706410   -2.500560    1.594620
     40          6           0        1.771480   -5.651330   -1.113120
     41          6           0        1.835140   -4.332980   -1.561030
     42          6           0        1.445460   -4.090980   -2.881250
     43          7           0        1.014740   -5.028400   -3.719570
     44          6           0        0.958680   -6.279270   -3.266270
     45          6           0        1.329070   -6.640460   -1.977240
     46          1           0        2.048300   -5.892820   -0.092340
     47          1           0        1.502430   -3.082320   -3.282820
     48          1           0        0.600540   -7.026910   -3.968150
     49          1           0        1.261500   -7.673270   -1.657420
     50          6           0       -2.969180    0.723790    0.959790
     51          6           0       -2.246140    1.590190    0.138220
     52          6           0       -2.944540    2.478910   -0.678620
     53          6           0       -4.338620    2.514900   -0.688920
     54          6           0       -5.040380    1.638260    0.140500
     55          6           0       -4.356600    0.750530    0.958540
     56          1           0       -2.440980    0.041980    1.616980
     57          1           0       -2.390850    3.156280   -1.320310
     58          1           0       -6.124790    1.637460    0.126880
     59          1           0       -4.909140    0.073330    1.599800
     60          6           0       -6.170040    4.178530   -1.127150
     61          6           0       -5.059760    3.462250   -1.570950
     62          6           0       -4.654280    3.672660   -2.891850
     63          7           0       -5.249970    4.510670   -3.734420
     64          6           0       -6.305490    5.186810   -3.284900
     65          6           0       -6.804620    5.052390   -1.995730
     66          1           0       -6.518440    4.064060   -0.106130
     67          1           0       -3.808960    3.117080   -3.290180
     68          1           0       -6.773210    5.867760   -3.990170
     69          1           0       -7.665520    5.628810   -1.679270
 ---------------------------------------------------------------------
 Rotational constants (GHZ):           0.0537141           0.0536379           0.0309055
 Leave Link  202 at Tue Jun 15 14:46:31 2021, MaxMem=  7864320000 cpu:               0.0 elap:               0.0
 (Enter /sw/linux/gaussian/g16/g16/l301.exe)
 Standard basis: 6-311G(d,p) (5D, 7F)
 Ernie: Thresh=  0.10000D-02 Tol=  0.10000D-05 Strict=F.
   918 basis functions,  1560 primitive gaussians,   960 cartesian basis functions
   141 alpha electrons      141 beta electrons
       nuclear repulsion energy      3989.8774057204 Hartrees.
 IExCor= 4639 DFT=T Ex+Corr=wB97XD ExCW=0 ScaHFX=  1.000000
 ScaDFX=  1.000000  1.000000  1.000000  1.000000 ScalE2=  1.000000  1.000000
 IRadAn=      5 IRanWt=     -1 IRanGd=            0 ICorTp=0 IEmpDi=121
 HFx  wShort=  0.000000 wLong=  0.200000 cFull=  0.222036 cShort=  0.000000 cLong=  0.777964
 DFx  wShort=  0.000000 wLong=  0.200000 cFull=  0.000000 cShort=  0.000000 cLong=  1.000000
 NAtoms=   69 NActive=   69 NUniq=   69 SFac= 1.00D+00 NAtFMM=   60 NAOKFM=T Big=T
 Integral buffers will be    131072 words long.
 Raffenetti 2 integral format.
 Two-electron integral symmetry is turned off.
 R6Disp:  Grimme-D2 Dispersion energy=       -0.0514748045 Hartrees.
 Nuclear repulsion after empirical dispersion term =     3989.8259309160 Hartrees.
 Leave Link  301 at Tue Jun 15 14:46:31 2021, MaxMem=  7864320000 cpu:               0.1 elap:               0.1
 (Enter /sw/linux/gaussian/g16/g16/l302.exe)
 NPDir=0 NMtPBC=     1 NCelOv=     1 NCel=       1 NClECP=     1 NCelD=      1
         NCelK=      1 NCelE2=     1 NClLst=     1 CellRange=     0.0.
 One-electron integrals computed using PRISM.
 NBasis=   918 RedAO= T EigKep=  1.36D-04  NBF=   918
 NBsUse=   918 1.00D-06 EigRej= -1.00D+00 NBFU=   918
 Precomputing XC quadrature grid using
 IXCGrd= 4 IRadAn=           5 IRanWt=          -1 IRanGd=           0 AccXCQ= 0.00D+00.
 Generated NRdTot=       0 NPtTot=           0 NUsed=           0 NTot=          32
 NSgBfM=   878   876   876   878   878 MxSgAt=    69 MxSgA2=    69.
 Leave Link  302 at Tue Jun 15 14:46:38 2021, MaxMem=  7864320000 cpu:               6.7 elap:               6.7
 (Enter /sw/linux/gaussian/g16/g16/l303.exe)
 DipDrv:  MaxL=1.
 Leave Link  303 at Tue Jun 15 14:46:38 2021, MaxMem=  7864320000 cpu:               0.1 elap:               0.1
 (Enter /sw/linux/gaussian/g16/g16/l401.exe)
 ExpMin= 1.03D-01 ExpMax= 6.29D+03 ExpMxC= 9.49D+02 IAcc=3 IRadAn=         5 AccDes= 0.00D+00
 Harris functional with IExCor= 4639 and IRadAn=       5 diagonalized for initial guess.
 HarFok:  IExCor= 4639 AccDes= 0.00D+00 IRadAn=         5 IDoV= 1 UseB2=F ITyADJ=14
 ICtDFT=  3500011 ScaDFX=  1.000000  1.000000  1.000000  1.000000
 FoFCou: FMM=F IPFlag=           0 FMFlag=      100000 FMFlg1=        2001
         NFxFlg=           0 DoJE=T BraDBF=F KetDBF=T FulRan=T
         wScrn=  0.000000 ICntrl=       500 IOpCl=  0 I1Cent=   200000004 NGrid=           0
         NMat0=    1 NMatS0=      1 NMatT0=    0 NMatD0=    1 NMtDS0=    0 NMtDT0=    0
 Symmetry not used in FoFCou.
 Harris En= -1591.82190090360    
 JPrj=0 DoOrth=F DoCkMO=F.
 Leave Link  401 at Tue Jun 15 14:47:52 2021, MaxMem=  7864320000 cpu:              74.2 elap:              74.2
 (Enter /sw/linux/gaussian/g16/g16/l502.exe)
 Two-electron integral symmetry not used.
 Closed shell SCF:
 Using DIIS extrapolation, IDIIS=  1040.
 NGot=  7864320000 LenX=  7862464073 LenY=  7861541513
 Requested convergence on RMS density matrix=1.00D-08 within 128 cycles.
 Requested convergence on MAX density matrix=1.00D-06.
 Requested convergence on             energy=1.00D-06.
 No special actions if energy rises.
 Fock matrices will be formed incrementally for  20 cycles.
 Integral accuracy reduced to 1.0D-05 until final iterations.

 Cycle   1  Pass 0  IDiag  1:
 FoFJK:  IHMeth= 1 ICntrl=       0 DoSepK=T KAlg= 0 I1Cent=           0 FoldK=F
 IRaf=         1 NMat=       1 IRICut=       1 DoRegI=T DoRafI=F ISym2E= 0 IDoP0=0 IntGTp=1.
 FoFCou: FMM=T IPFlag=           0 FMFlag=      100000 FMFlg1=        2001
         NFxFlg=           0 DoJE=T BraDBF=F KetDBF=F FulRan=T
         wScrn=  0.000000 ICntrl=       500 IOpCl=  0 I1Cent=           0 NGrid=           0
         NMat0=    1 NMatS0=      1 NMatT0=    0 NMatD0=    1 NMtDS0=    0 NMtDT0=    0
 Symmetry not used in FoFCou.
 FMM levels:  10  Number of levels for PrismC:   9
 E= -1666.13899660920    
 DIIS: error= 5.28D-02 at cycle   1 NSaved=   1.
 NSaved= 1 IEnMin= 1 EnMin= -1666.13899660920     IErMin= 1 ErrMin= 5.28D-02
 ErrMax= 5.28D-02  0.00D+00 EMaxC= 1.00D-01 BMatC= 3.46D+00 BMatP= 3.46D+00
 IDIUse=3 WtCom= 4.72D-01 WtEn= 5.28D-01
 Coeff-Com:  0.100D+01
 Coeff-En:   0.100D+01
 Coeff:      0.100D+01
 Gap=     0.393 Goal=   None    Shift=    0.000
 GapD=    0.393 DampG=1.000 DampE=0.500 DampFc=0.5000 IDamp=-1.
 Damping current iteration by 5.00D-01
 RMSDP=9.65D-04 MaxDP=5.32D-02              OVMax= 5.65D-02

 Cycle   2  Pass 0  IDiag  1:
 RMSU=  4.73D-04    CP:  9.84D-01
 E= -1666.31278201542     Delta-E=       -0.173785406226 Rises=F Damp=T
 DIIS: error= 2.56D-02 at cycle   2 NSaved=   2.
 NSaved= 2 IEnMin= 2 EnMin= -1666.31278201542     IErMin= 2 ErrMin= 2.56D-02
 ErrMax= 2.56D-02  0.00D+00 EMaxC= 1.00D-01 BMatC= 7.73D-01 BMatP= 3.46D+00
 IDIUse=3 WtCom= 7.44D-01 WtEn= 2.56D-01
 Coeff-Com: -0.840D+00 0.184D+01
 Coeff-En:   0.000D+00 0.100D+01
 Coeff:     -0.625D+00 0.162D+01
 Gap=     0.342 Goal=   None    Shift=    0.000
 RMSDP=5.62D-04 MaxDP=2.93D-02 DE=-1.74D-01 OVMax= 7.79D-02

 Cycle   3  Pass 0  IDiag  1:
 RMSU=  4.54D-04    CP:  9.75D-01  1.69D+00
 E= -1666.44267399330     Delta-E=       -0.129891977882 Rises=F Damp=F
 DIIS: error= 7.75D-03 at cycle   3 NSaved=   3.
 NSaved= 3 IEnMin= 3 EnMin= -1666.44267399330     IErMin= 3 ErrMin= 7.75D-03
 ErrMax= 7.75D-03  0.00D+00 EMaxC= 1.00D-01 BMatC= 5.28D-02 BMatP= 7.73D-01
 IDIUse=3 WtCom= 9.23D-01 WtEn= 7.75D-02
 Coeff-Com: -0.417D+00 0.884D+00 0.533D+00
 Coeff-En:   0.000D+00 0.000D+00 0.100D+01
 Coeff:     -0.385D+00 0.816D+00 0.569D+00
 Gap=     0.359 Goal=   None    Shift=    0.000
 RMSDP=2.78D-04 MaxDP=2.13D-02 DE=-1.30D-01 OVMax= 3.98D-02

 Cycle   4  Pass 0  IDiag  1:
 RMSU=  9.79D-05    CP:  9.71D-01  1.94D+00  4.94D-01
 E= -1666.48882406719     Delta-E=       -0.046150073887 Rises=F Damp=F
 DIIS: error= 1.21D-03 at cycle   4 NSaved=   4.
 NSaved= 4 IEnMin= 4 EnMin= -1666.48882406719     IErMin= 4 ErrMin= 1.21D-03
 ErrMax= 1.21D-03  0.00D+00 EMaxC= 1.00D-01 BMatC= 1.64D-03 BMatP= 5.28D-02
 IDIUse=3 WtCom= 9.88D-01 WtEn= 1.21D-02
 Coeff-Com: -0.128D+00 0.273D+00 0.248D+00 0.607D+00
 Coeff-En:   0.000D+00 0.000D+00 0.000D+00 0.100D+01
 Coeff:     -0.127D+00 0.269D+00 0.245D+00 0.612D+00
 Gap=     0.321 Goal=   None    Shift=    0.000
 RMSDP=4.55D-05 MaxDP=3.06D-03 DE=-4.62D-02 OVMax= 6.65D-03

 Cycle   5  Pass 0  IDiag  1:
 RMSU=  2.54D-05    CP:  9.71D-01  1.94D+00  5.67D-01  8.16D-01
 E= -1666.49028876717     Delta-E=       -0.001464699983 Rises=F Damp=F
 DIIS: error= 1.92D-04 at cycle   5 NSaved=   5.
 NSaved= 5 IEnMin= 5 EnMin= -1666.49028876717     IErMin= 5 ErrMin= 1.92D-04
 ErrMax= 1.92D-04  0.00D+00 EMaxC= 1.00D-01 BMatC= 5.42D-05 BMatP= 1.64D-03
 IDIUse=3 WtCom= 9.98D-01 WtEn= 1.92D-03
 Coeff-Com:  0.226D-01-0.480D-01-0.340D-03 0.192D+00 0.834D+00
 Coeff-En:   0.000D+00 0.000D+00 0.000D+00 0.000D+00 0.100D+01
 Coeff:      0.226D-01-0.479D-01-0.339D-03 0.191D+00 0.834D+00
 Gap=     0.321 Goal=   None    Shift=    0.000
 RMSDP=1.49D-05 MaxDP=6.37D-04 DE=-1.46D-03 OVMax= 1.30D-03

 Cycle   6  Pass 0  IDiag  1:
 RMSU=  9.68D-06    CP:  9.71D-01  1.95D+00  5.71D-01  9.18D-01  1.02D+00
 E= -1666.49033996427     Delta-E=       -0.000051197101 Rises=F Damp=F
 DIIS: error= 1.58D-04 at cycle   6 NSaved=   6.
 NSaved= 6 IEnMin= 6 EnMin= -1666.49033996427     IErMin= 6 ErrMin= 1.58D-04
 ErrMax= 1.58D-04  0.00D+00 EMaxC= 1.00D-01 BMatC= 6.80D-06 BMatP= 5.42D-05
 IDIUse=3 WtCom= 9.98D-01 WtEn= 1.58D-03
 Coeff-Com:  0.162D-01-0.343D-01-0.120D-01 0.557D-01 0.370D+00 0.604D+00
 Coeff-En:   0.000D+00 0.000D+00 0.000D+00 0.000D+00 0.000D+00 0.100D+01
 Coeff:      0.161D-01-0.343D-01-0.119D-01 0.556D-01 0.370D+00 0.605D+00
 Gap=     0.321 Goal=   None    Shift=    0.000
 RMSDP=7.18D-06 MaxDP=1.74D-04 DE=-5.12D-05 OVMax= 7.08D-04

 Initial convergence to 1.0D-05 achieved.  Increase integral accuracy.
 Cycle   7  Pass 1  IDiag  1:
 E= -1666.49059018081     Delta-E=       -0.000250216536 Rises=F Damp=F
 DIIS: error= 3.33D-04 at cycle   1 NSaved=   1.
 NSaved= 1 IEnMin= 1 EnMin= -1666.49059018081     IErMin= 1 ErrMin= 3.33D-04
 ErrMax= 3.33D-04  0.00D+00 EMaxC= 1.00D-01 BMatC= 2.08D-05 BMatP= 2.08D-05
 IDIUse=3 WtCom= 9.97D-01 WtEn= 3.33D-03
 Coeff-Com:  0.100D+01
 Coeff-En:   0.100D+01
 Coeff:      0.100D+01
 Gap=     0.321 Goal=   None    Shift=    0.000
 RMSDP=7.18D-06 MaxDP=1.74D-04 DE=-2.50D-04 OVMax= 5.11D-04

 Cycle   8  Pass 1  IDiag  1:
 RMSU=  1.05D-04    CP:  1.00D+00
 E= -1666.49061038150     Delta-E=       -0.000020200689 Rises=F Damp=F
 DIIS: error= 5.01D-05 at cycle   2 NSaved=   2.
 NSaved= 2 IEnMin= 2 EnMin= -1666.49061038150     IErMin= 2 ErrMin= 5.01D-05
 ErrMax= 5.01D-05  0.00D+00 EMaxC= 1.00D-01 BMatC= 8.24D-07 BMatP= 2.08D-05
 IDIUse=1 WtCom= 1.00D+00 WtEn= 0.00D+00
 Coeff-Com:  0.256D-01 0.974D+00
 Coeff:      0.256D-01 0.974D+00
 Gap=     0.321 Goal=   None    Shift=    0.000
 RMSDP=5.69D-06 MaxDP=1.33D-04 DE=-2.02D-05 OVMax= 3.65D-04

 Cycle   9  Pass 1  IDiag  1:
 RMSU=  2.54D-06    CP:  1.00D+00  1.05D+00
 E= -1666.49060998962     Delta-E=        0.000000391879 Rises=F Damp=F
 DIIS: error= 5.12D-05 at cycle   3 NSaved=   3.
 NSaved= 3 IEnMin= 2 EnMin= -1666.49061038150     IErMin= 2 ErrMin= 5.01D-05
 ErrMax= 5.12D-05  0.00D+00 EMaxC= 1.00D-01 BMatC= 1.28D-06 BMatP= 8.24D-07
 IDIUse=1 WtCom= 1.00D+00 WtEn= 0.00D+00
 Coeff-Com: -0.250D-01 0.567D+00 0.458D+00
 Coeff:     -0.250D-01 0.567D+00 0.458D+00
 Gap=     0.321 Goal=   None    Shift=    0.000
 RMSDP=1.24D-06 MaxDP=5.36D-05 DE= 3.92D-07 OVMax= 1.68D-04

 Cycle  10  Pass 1  IDiag  1:
 RMSU=  7.36D-07    CP:  1.00D+00  1.05D+00  6.44D-01
 E= -1666.49061132735     Delta-E=       -0.000001337728 Rises=F Damp=F
 DIIS: error= 3.08D-06 at cycle   4 NSaved=   4.
 NSaved= 4 IEnMin= 4 EnMin= -1666.49061132735     IErMin= 4 ErrMin= 3.08D-06
 ErrMax= 3.08D-06  0.00D+00 EMaxC= 1.00D-01 BMatC= 2.93D-09 BMatP= 8.24D-07
 IDIUse=1 WtCom= 1.00D+00 WtEn= 0.00D+00
 Coeff-Com: -0.300D-02 0.462D-01 0.473D-01 0.909D+00
 Coeff:     -0.300D-02 0.462D-01 0.473D-01 0.909D+00
 Gap=     0.321 Goal=   None    Shift=    0.000
 RMSDP=1.62D-07 MaxDP=6.14D-06 DE=-1.34D-06 OVMax= 2.84D-05

 Cycle  11  Pass 1  IDiag  1:
 RMSU=  1.12D-07    CP:  1.00D+00  1.05D+00  6.72D-01  1.09D+00
 E= -1666.49061133394     Delta-E=       -0.000000006589 Rises=F Damp=F
 DIIS: error= 1.32D-06 at cycle   5 NSaved=   5.
 NSaved= 5 IEnMin= 5 EnMin= -1666.49061133394     IErMin= 5 ErrMin= 1.32D-06
 ErrMax= 1.32D-06  0.00D+00 EMaxC= 1.00D-01 BMatC= 1.78D-09 BMatP= 2.93D-09
 IDIUse=1 WtCom= 1.00D+00 WtEn= 0.00D+00
 Coeff-Com:  0.384D-02-0.976D-01-0.741D-01 0.454D+00 0.714D+00
 Coeff:      0.384D-02-0.976D-01-0.741D-01 0.454D+00 0.714D+00
 Gap=     0.321 Goal=   None    Shift=    0.000
 RMSDP=7.66D-08 MaxDP=3.24D-06 DE=-6.59D-09 OVMax= 1.36D-05

 Cycle  12  Pass 1  IDiag  1:
 RMSU=  5.88D-08    CP:  1.00D+00  1.05D+00  6.78D-01  1.15D+00  1.13D+00
 E= -1666.49061133646     Delta-E=       -0.000000002524 Rises=F Damp=F
 DIIS: error= 4.20D-07 at cycle   6 NSaved=   6.
 NSaved= 6 IEnMin= 6 EnMin= -1666.49061133646     IErMin= 6 ErrMin= 4.20D-07
 ErrMax= 4.20D-07  0.00D+00 EMaxC= 1.00D-01 BMatC= 1.20D-10 BMatP= 1.78D-09
 IDIUse=1 WtCom= 1.00D+00 WtEn= 0.00D+00
 Coeff-Com:  0.156D-02-0.364D-01-0.291D-01 0.429D-01 0.198D+00 0.823D+00
 Coeff:      0.156D-02-0.364D-01-0.291D-01 0.429D-01 0.198D+00 0.823D+00
 Gap=     0.321 Goal=   None    Shift=    0.000
 RMSDP=2.79D-08 MaxDP=1.22D-06 DE=-2.52D-09 OVMax= 5.27D-06

 Cycle  13  Pass 1  IDiag  1:
 RMSU=  1.86D-08    CP:  1.00D+00  1.05D+00  6.78D-01  1.15D+00  1.30D+00
                    CP:  1.13D+00
 E= -1666.49061133668     Delta-E=       -0.000000000215 Rises=F Damp=F
 DIIS: error= 1.97D-07 at cycle   7 NSaved=   7.
 NSaved= 7 IEnMin= 7 EnMin= -1666.49061133668     IErMin= 7 ErrMin= 1.97D-07
 ErrMax= 1.97D-07  0.00D+00 EMaxC= 1.00D-01 BMatC= 2.60D-11 BMatP= 1.20D-10
 IDIUse=1 WtCom= 1.00D+00 WtEn= 0.00D+00
 Coeff-Com: -0.292D-03 0.876D-02 0.617D-02-0.811D-01-0.946D-01 0.333D+00
 Coeff-Com:  0.828D+00
 Coeff:     -0.292D-03 0.876D-02 0.617D-02-0.811D-01-0.946D-01 0.333D+00
 Coeff:      0.828D+00
 Gap=     0.321 Goal=   None    Shift=    0.000
 RMSDP=1.34D-08 MaxDP=5.07D-07 DE=-2.15D-10 OVMax= 2.66D-06

 Cycle  14  Pass 1  IDiag  1:
 RMSU=  6.75D-09    CP:  1.00D+00  1.05D+00  6.77D-01  1.15D+00  1.35D+00
                    CP:  1.27D+00  1.07D+00
 E= -1666.49061133672     Delta-E=       -0.000000000040 Rises=F Damp=F
 DIIS: error= 6.12D-08 at cycle   8 NSaved=   8.
 NSaved= 8 IEnMin= 8 EnMin= -1666.49061133672     IErMin= 8 ErrMin= 6.12D-08
 ErrMax= 6.12D-08  0.00D+00 EMaxC= 1.00D-01 BMatC= 1.21D-12 BMatP= 2.60D-11
 IDIUse=1 WtCom= 1.00D+00 WtEn= 0.00D+00
 Coeff-Com: -0.135D-03 0.348D-02 0.266D-02-0.164D-01-0.323D-01 0.766D-02
 Coeff-Com:  0.152D+00 0.883D+00
 Coeff:     -0.135D-03 0.348D-02 0.266D-02-0.164D-01-0.323D-01 0.766D-02
 Coeff:      0.152D+00 0.883D+00
 Gap=     0.321 Goal=   None    Shift=    0.000
 RMSDP=2.98D-09 MaxDP=1.27D-07 DE=-4.00D-11 OVMax= 8.12D-07

 SCF Done:  E(RwB97XD) =  -1666.49061134     A.U. after   14 cycles
            NFock= 14  Conv=0.30D-08     -V/T= 2.0040
 KE= 1.659872490673D+03 PE=-1.184913637881D+04 EE= 4.532947345887D+03
 Leave Link  502 at Tue Jun 15 15:22:46 2021, MaxMem=  7864320000 cpu:            2093.6 elap:            2093.7
 (Enter /sw/linux/gaussian/g16/g16/l601.exe)
 Copying SCF densities to generalized density rwf, IOpCl= 0 IROHF=0.

 **********************************************************************

            Population analysis using the SCF Density.

 **********************************************************************

 Alpha  occ. eigenvalues --  -14.42831 -14.42831 -14.42830 -10.32192 -10.32192
 Alpha  occ. eigenvalues --  -10.32191 -10.32134 -10.32133 -10.32133 -10.31014
 Alpha  occ. eigenvalues --  -10.31013 -10.31013 -10.30985 -10.30984 -10.30984
 Alpha  occ. eigenvalues --  -10.30923 -10.30922 -10.30921 -10.30904 -10.30903
 Alpha  occ. eigenvalues --  -10.30902 -10.30872 -10.30872 -10.30871 -10.29920
 Alpha  occ. eigenvalues --  -10.29919 -10.29919 -10.29761 -10.29761 -10.29761
 Alpha  occ. eigenvalues --  -10.29684 -10.29684 -10.29683 -10.29670 -10.29670
 Alpha  occ. eigenvalues --  -10.29670 -10.29594 -10.29594 -10.29593 -10.29562
 Alpha  occ. eigenvalues --  -10.29560 -10.29558  -1.05243  -1.05242  -1.05242
 Alpha  occ. eigenvalues --   -0.99699  -0.98243  -0.98242  -0.96624  -0.92694
 Alpha  occ. eigenvalues --   -0.92694  -0.91996  -0.89786  -0.89786  -0.88533
 Alpha  occ. eigenvalues --   -0.88291  -0.88290  -0.85807  -0.84387  -0.84385
 Alpha  occ. eigenvalues --   -0.83999  -0.82772  -0.82771  -0.75076  -0.75074
 Alpha  occ. eigenvalues --   -0.74447  -0.73995  -0.73979  -0.73979  -0.72580
 Alpha  occ. eigenvalues --   -0.72579  -0.71126  -0.69664  -0.69663  -0.69644
 Alpha  occ. eigenvalues --   -0.66622  -0.66620  -0.64337  -0.62622  -0.62622
 Alpha  occ. eigenvalues --   -0.61352  -0.60259  -0.60258  -0.59154  -0.58918
 Alpha  occ. eigenvalues --   -0.58403  -0.58403  -0.57733  -0.57002  -0.56471
 Alpha  occ. eigenvalues --   -0.56470  -0.54992  -0.54992  -0.54456  -0.54060
 Alpha  occ. eigenvalues --   -0.53283  -0.53283  -0.52132  -0.51975  -0.51974
 Alpha  occ. eigenvalues --   -0.51782  -0.51454  -0.51452  -0.49651  -0.49650
 Alpha  occ. eigenvalues --   -0.49583  -0.49395  -0.49370  -0.49370  -0.47960
 Alpha  occ. eigenvalues --   -0.47443  -0.47441  -0.46689  -0.46687  -0.46633
 Alpha  occ. eigenvalues --   -0.45745  -0.45745  -0.45650  -0.44361  -0.43913
 Alpha  occ. eigenvalues --   -0.43912  -0.43578  -0.42272  -0.42269  -0.38647
 Alpha  occ. eigenvalues --   -0.38644  -0.37973  -0.36926  -0.36924  -0.35990
 Alpha  occ. eigenvalues --   -0.35750  -0.35750  -0.34141  -0.34137  -0.34137
 Alpha  occ. eigenvalues --   -0.33571  -0.32061  -0.32060  -0.31493  -0.30673
 Alpha  occ. eigenvalues --   -0.30670
 Alpha virt. eigenvalues --    0.01463   0.01467   0.02178   0.02738   0.02742
 Alpha virt. eigenvalues --    0.04011   0.04022   0.04022   0.04856   0.07131
 Alpha virt. eigenvalues --    0.07134   0.07813   0.09094   0.09100   0.11861
 Alpha virt. eigenvalues --    0.12375   0.12375   0.13072   0.13403   0.13403
 Alpha virt. eigenvalues --    0.14352   0.14965   0.14969   0.15948   0.16163
 Alpha virt. eigenvalues --    0.16163   0.16924   0.17375   0.17377   0.18455
 Alpha virt. eigenvalues --    0.18456   0.18521   0.19279   0.19697   0.19698
 Alpha virt. eigenvalues --    0.20011   0.20847   0.20848   0.21163   0.21691
 Alpha virt. eigenvalues --    0.22157   0.22159   0.23226   0.23228   0.23621
 Alpha virt. eigenvalues --    0.25593   0.26017   0.26026   0.28794   0.28991
 Alpha virt. eigenvalues --    0.28992   0.30244   0.30247   0.30570   0.31431
 Alpha virt. eigenvalues --    0.31525   0.31526   0.31879   0.32064   0.32066
 Alpha virt. eigenvalues --    0.33183   0.33186   0.34079   0.35101   0.35105
 Alpha virt. eigenvalues --    0.35401   0.35712   0.35717   0.36657   0.36661
 Alpha virt. eigenvalues --    0.37237   0.37293   0.38247   0.38249   0.38485
 Alpha virt. eigenvalues --    0.38667   0.38671   0.39332   0.40028   0.40541
 Alpha virt. eigenvalues --    0.40542   0.40870   0.40871   0.41078   0.42307
 Alpha virt. eigenvalues --    0.42811   0.42812   0.43996   0.44539   0.44540
 Alpha virt. eigenvalues --    0.44867   0.45042   0.45042   0.45245   0.46008
 Alpha virt. eigenvalues --    0.46009   0.46205   0.46907   0.46908   0.47129
 Alpha virt. eigenvalues --    0.47130   0.47208   0.47687   0.47688   0.47727
 Alpha virt. eigenvalues --    0.48429   0.48429   0.48449   0.49214   0.49603
 Alpha virt. eigenvalues --    0.49604   0.49849   0.50547   0.50550   0.50851
 Alpha virt. eigenvalues --    0.50927   0.50929   0.51705   0.51706   0.51742
 Alpha virt. eigenvalues --    0.52361   0.52735   0.52845   0.52847   0.53199
 Alpha virt. eigenvalues --    0.53200   0.53257   0.53619   0.53620   0.53927
 Alpha virt. eigenvalues --    0.54652   0.54699   0.54705   0.55403   0.55406
 Alpha virt. eigenvalues --    0.56439   0.57106   0.57109   0.57739   0.57743
 Alpha virt. eigenvalues --    0.58030   0.59374   0.59375   0.59571   0.60044
 Alpha virt. eigenvalues --    0.61079   0.61366   0.61371   0.62159   0.62161
 Alpha virt. eigenvalues --    0.62490   0.63074   0.63076   0.63191   0.63652
 Alpha virt. eigenvalues --    0.63653   0.64013   0.64151   0.64157   0.64787
 Alpha virt. eigenvalues --    0.64793   0.65457   0.65885   0.65889   0.66406
 Alpha virt. eigenvalues --    0.66450   0.67060   0.67061   0.67588   0.67589
 Alpha virt. eigenvalues --    0.67641   0.68309   0.68852   0.69193   0.69194
 Alpha virt. eigenvalues --    0.69925   0.69927   0.70055   0.70459   0.70477
 Alpha virt. eigenvalues --    0.70478   0.70864   0.71216   0.71217   0.71389
 Alpha virt. eigenvalues --    0.71526   0.71527   0.72222   0.72226   0.72522
 Alpha virt. eigenvalues --    0.73394   0.73396   0.73821   0.74144   0.74146
 Alpha virt. eigenvalues --    0.74484   0.75270   0.75455   0.75461   0.77426
 Alpha virt. eigenvalues --    0.77534   0.77536   0.78938   0.79228   0.79229
 Alpha virt. eigenvalues --    0.79572   0.80270   0.80273   0.80902   0.80904
 Alpha virt. eigenvalues --    0.82321   0.82937   0.83511   0.83513   0.83877
 Alpha virt. eigenvalues --    0.83880   0.84044   0.84876   0.85732   0.85736
 Alpha virt. eigenvalues --    0.86526   0.86530   0.86663   0.86967   0.86971
 Alpha virt. eigenvalues --    0.87062   0.88053   0.88055   0.88559   0.88795
 Alpha virt. eigenvalues --    0.88797   0.88986   0.90533   0.90864   0.90865
 Alpha virt. eigenvalues --    0.91902   0.92063   0.92065   0.93160   0.93170
 Alpha virt. eigenvalues --    0.93425   0.94613   0.94646   0.94653   0.94706
 Alpha virt. eigenvalues --    0.95986   0.95997   0.97041   0.97044   0.97314
 Alpha virt. eigenvalues --    0.97789   0.97794   0.99110   0.99609   0.99623
 Alpha virt. eigenvalues --    0.99656   1.01002   1.01718   1.01723   1.02787
 Alpha virt. eigenvalues --    1.03084   1.03092   1.04740   1.04743   1.05481
 Alpha virt. eigenvalues --    1.05484   1.05638   1.07152   1.07154   1.07205
 Alpha virt. eigenvalues --    1.07321   1.09181   1.09184   1.10985   1.11167
 Alpha virt. eigenvalues --    1.11170   1.12602   1.12730   1.12735   1.13139
 Alpha virt. eigenvalues --    1.14352   1.14380   1.14383   1.15029   1.15671
 Alpha virt. eigenvalues --    1.15674   1.15979   1.15980   1.16594   1.18614
 Alpha virt. eigenvalues --    1.18862   1.18863   1.19295   1.19374   1.19377
 Alpha virt. eigenvalues --    1.20558   1.20566   1.21739   1.22050   1.22238
 Alpha virt. eigenvalues --    1.22240   1.22854   1.23237   1.23246   1.23435
 Alpha virt. eigenvalues --    1.23437   1.25637   1.25642   1.27191   1.28390
 Alpha virt. eigenvalues --    1.28392   1.30980   1.33389   1.33619   1.34128
 Alpha virt. eigenvalues --    1.34129   1.36412   1.36953   1.36957   1.38228
 Alpha virt. eigenvalues --    1.38427   1.38428   1.40832   1.40834   1.40943
 Alpha virt. eigenvalues --    1.43355   1.45217   1.47599   1.47599   1.48860
 Alpha virt. eigenvalues --    1.48863   1.49303   1.49808   1.49816   1.50848
 Alpha virt. eigenvalues --    1.51208   1.51212   1.52364   1.52368   1.53108
 Alpha virt. eigenvalues --    1.53642   1.54031   1.54032   1.54933   1.54937
 Alpha virt. eigenvalues --    1.55205   1.56199   1.56201   1.56538   1.57567
 Alpha virt. eigenvalues --    1.57570   1.57867   1.58449   1.59007   1.59009
 Alpha virt. eigenvalues --    1.59936   1.60876   1.60877   1.61129   1.61412
 Alpha virt. eigenvalues --    1.61413   1.62291   1.62567   1.62570   1.63108
 Alpha virt. eigenvalues --    1.63110   1.63408   1.64365   1.64368   1.65121
 Alpha virt. eigenvalues --    1.65734   1.65737   1.66759   1.67128   1.67133
 Alpha virt. eigenvalues --    1.67918   1.68204   1.68700   1.68702   1.70270
 Alpha virt. eigenvalues --    1.71591   1.71593   1.71939   1.72115   1.72117
 Alpha virt. eigenvalues --    1.73516   1.73518   1.74133   1.74289   1.74293
 Alpha virt. eigenvalues --    1.75075   1.76604   1.76608   1.76935   1.77653
 Alpha virt. eigenvalues --    1.77657   1.77839   1.78059   1.78064   1.78191
 Alpha virt. eigenvalues --    1.79477   1.79720   1.79720   1.80190   1.80206
 Alpha virt. eigenvalues --    1.81257   1.81759   1.81764   1.82576   1.82843
 Alpha virt. eigenvalues --    1.82844   1.83184   1.84138   1.84139   1.84228
 Alpha virt. eigenvalues --    1.84581   1.84586   1.85458   1.86935   1.86935
 Alpha virt. eigenvalues --    1.86960   1.89843   1.89851   1.93722   1.93723
 Alpha virt. eigenvalues --    1.94285   1.94825   1.94827   1.95340   1.95396
 Alpha virt. eigenvalues --    1.95723   1.95727   1.97723   1.97972   1.97976
 Alpha virt. eigenvalues --    1.99671   1.99682   2.00108   2.00243   2.00626
 Alpha virt. eigenvalues --    2.00628   2.01080   2.01179   2.01193   2.01501
 Alpha virt. eigenvalues --    2.01503   2.02236   2.02242   2.02460   2.03122
 Alpha virt. eigenvalues --    2.03307   2.03328   2.03331   2.03776   2.03782
 Alpha virt. eigenvalues --    2.04575   2.05237   2.05240   2.06329   2.06331
 Alpha virt. eigenvalues --    2.06721   2.07803   2.08070   2.08074   2.08574
 Alpha virt. eigenvalues --    2.09131   2.09134   2.10572   2.11504   2.11510
 Alpha virt. eigenvalues --    2.12322   2.12904   2.12912   2.14870   2.14876
 Alpha virt. eigenvalues --    2.15462   2.18144   2.18539   2.18543   2.18922
 Alpha virt. eigenvalues --    2.18928   2.18952   2.20615   2.20616   2.24234
 Alpha virt. eigenvalues --    2.24616   2.24618   2.24830   2.24978   2.25239
 Alpha virt. eigenvalues --    2.25241   2.26586   2.26587   2.28510   2.30778
 Alpha virt. eigenvalues --    2.30780   2.32347   2.32881   2.32883   2.35270
 Alpha virt. eigenvalues --    2.35902   2.35905   2.36893   2.38755   2.38896
 Alpha virt. eigenvalues --    2.38897   2.41299   2.41341   2.41344   2.42106
 Alpha virt. eigenvalues --    2.42833   2.42834   2.43343   2.43997   2.43999
 Alpha virt. eigenvalues --    2.45456   2.46900   2.46903   2.48345   2.48349
 Alpha virt. eigenvalues --    2.48847   2.49866   2.49871   2.50551   2.52235
 Alpha virt. eigenvalues --    2.52454   2.52467   2.54064   2.54126   2.54131
 Alpha virt. eigenvalues --    2.58922   2.58924   2.59246   2.60304   2.60318
 Alpha virt. eigenvalues --    2.62802   2.65302   2.65362   2.65363   2.66307
 Alpha virt. eigenvalues --    2.66433   2.66434   2.68392   2.68479   2.68486
 Alpha virt. eigenvalues --    2.68717   2.68723   2.69003   2.69737   2.69746
 Alpha virt. eigenvalues --    2.69877   2.70161   2.70246   2.70251   2.70919
 Alpha virt. eigenvalues --    2.70947   2.70952   2.71826   2.72132   2.72136
 Alpha virt. eigenvalues --    2.73339   2.74052   2.74057   2.74296   2.74934
 Alpha virt. eigenvalues --    2.74936   2.75358   2.75883   2.76335   2.76336
 Alpha virt. eigenvalues --    2.76428   2.77801   2.77802   2.78420   2.79478
 Alpha virt. eigenvalues --    2.79628   2.79634   2.80562   2.80566   2.81696
 Alpha virt. eigenvalues --    2.81710   2.81711   2.83017   2.83025   2.83026
 Alpha virt. eigenvalues --    2.84253   2.84255   2.84892   2.85391   2.85397
 Alpha virt. eigenvalues --    2.86882   2.86896   2.86910   2.87293   2.87307
 Alpha virt. eigenvalues --    2.88500   2.89217   2.89932   2.89938   2.90759
 Alpha virt. eigenvalues --    2.90761   2.90913   2.92166   2.92428   2.92435
 Alpha virt. eigenvalues --    2.94122   2.94124   2.94345   2.96031   2.96842
 Alpha virt. eigenvalues --    2.96842   2.98245   2.98247   2.98364   2.99408
 Alpha virt. eigenvalues --    2.99418   3.01292   3.02151   3.02153   3.03007
 Alpha virt. eigenvalues --    3.03786   3.03787   3.04772   3.05552   3.05553
 Alpha virt. eigenvalues --    3.06252   3.08387   3.08388   3.11024   3.11646
 Alpha virt. eigenvalues --    3.11653   3.12569   3.12574   3.14184   3.15219
 Alpha virt. eigenvalues --    3.16235   3.16247   3.17420   3.19066   3.19069
 Alpha virt. eigenvalues --    3.23021   3.27071   3.28512   3.29315   3.29320
 Alpha virt. eigenvalues --    3.30529   3.30531   3.31343   3.32159   3.32161
 Alpha virt. eigenvalues --    3.32389   3.34213   3.34218   3.35938   3.42685
 Alpha virt. eigenvalues --    3.42686   3.42801   3.46180   3.46181   3.46486
 Alpha virt. eigenvalues --    3.47377   3.47380   3.49232   3.50032   3.50037
 Alpha virt. eigenvalues --    3.53800   3.53832   3.53834   3.55998   3.56267
 Alpha virt. eigenvalues --    3.56269   3.58328   3.58365   3.58369   3.61013
 Alpha virt. eigenvalues --    3.65623   3.65624   3.65798   3.68438   3.68438
 Alpha virt. eigenvalues --    3.69464   3.70453   3.70463   3.72477   3.73639
 Alpha virt. eigenvalues --    3.73640   3.74024   3.79255   3.79263   3.81069
 Alpha virt. eigenvalues --    3.82506   3.82508   3.82546   3.83498   3.83507
 Alpha virt. eigenvalues --    3.86531   3.96340   3.96341   3.96375   4.09235
 Alpha virt. eigenvalues --    4.09236   4.09299   4.10141   4.10141   4.10287
 Alpha virt. eigenvalues --    4.14261   4.14262   4.14291   4.19808   4.19816
 Alpha virt. eigenvalues --    4.21502   4.21983   4.21986   4.23231   4.25733
 Alpha virt. eigenvalues --    4.25753   4.42676   4.42677   4.42719   4.49561
 Alpha virt. eigenvalues --    4.49706   4.49712   4.49714   4.57379   4.57388
 Alpha virt. eigenvalues --    4.64751   4.79197   4.79219   4.91805   4.93772
 Alpha virt. eigenvalues --    4.93773   4.96511   5.32048   5.32113   5.32117
 Alpha virt. eigenvalues --   23.60053  23.68512  23.68514  23.76321  23.80815
 Alpha virt. eigenvalues --   23.80816  23.81113  24.02281  24.02281  24.02428
 Alpha virt. eigenvalues --   24.03092  24.03093  24.05101  24.05603  24.05604
 Alpha virt. eigenvalues --   24.05852  24.07948  24.07958  24.13031  24.13035
 Alpha virt. eigenvalues --   24.13036  24.18237  24.18239  24.18260  24.19549
 Alpha virt. eigenvalues --   24.19553  24.20686  24.22867  24.22870  24.23063
 Alpha virt. eigenvalues --   24.23839  24.23849  24.27541  24.27602  24.27606
 Alpha virt. eigenvalues --   24.30018  24.32371  24.32374  24.33321  35.77103
 Alpha virt. eigenvalues --   35.77157  35.77158
          Condensed to atoms (all electrons):
 Mulliken charges:
               1
     1  C   -0.065613
     2  C   -0.051974
     3  C   -0.065705
     4  C   -0.052014
     5  C   -0.065643
     6  C   -0.052184
     7  H    0.122330
     8  H    0.122319
     9  H    0.122351
    10  C   -0.083977
    11  C   -0.065604
    12  C   -0.067110
    13  C   -0.054316
    14  C   -0.084336
    15  C   -0.104360
    16  H    0.117081
    17  H    0.127049
    18  H    0.113708
    19  H    0.110986
    20  C    0.023467
    21  C   -0.182190
    22  C    0.097524
    23  N   -0.304920
    24  C    0.065300
    25  C   -0.206858
    26  H    0.121331
    27  H    0.131018
    28  H    0.125892
    29  H    0.115708
    30  C   -0.084023
    31  C   -0.065495
    32  C   -0.067177
    33  C   -0.054229
    34  C   -0.084449
    35  C   -0.104340
    36  H    0.117061
    37  H    0.127095
    38  H    0.113731
    39  H    0.110993
    40  C    0.023431
    41  C   -0.182200
    42  C    0.097526
    43  N   -0.304947
    44  C    0.065317
    45  C   -0.206836
    46  H    0.121350
    47  H    0.131007
    48  H    0.125889
    49  H    0.115698
    50  C   -0.083930
    51  C   -0.065766
    52  C   -0.067215
    53  C   -0.054150
    54  C   -0.084426
    55  C   -0.104312
    56  H    0.117043
    57  H    0.127120
    58  H    0.113718
    59  H    0.110996
    60  C    0.023445
    61  C   -0.182083
    62  C    0.097417
    63  N   -0.304887
    64  C    0.065281
    65  C   -0.206852
    66  H    0.121330
    67  H    0.131022
    68  H    0.125889
    69  H    0.115702
 Sum of Mulliken charges =   0.00000
 Mulliken charges with hydrogens summed into heavy atoms:
               1
     1  C    0.056717
     2  C   -0.051974
     3  C    0.056613
     4  C   -0.052014
     5  C    0.056708
     6  C   -0.052184
    10  C    0.033104
    11  C   -0.065604
    12  C    0.059939
    13  C   -0.054316
    14  C    0.029372
    15  C    0.006626
    20  C    0.144798
    21  C   -0.182190
    22  C    0.228542
    23  N   -0.304920
    24  C    0.191192
    25  C   -0.091150
    30  C    0.033037
    31  C   -0.065495
    32  C    0.059918
    33  C   -0.054229
    34  C    0.029283
    35  C    0.006652
    40  C    0.144781
    41  C   -0.182200
    42  C    0.228533
    43  N   -0.304947
    44  C    0.191206
    45  C   -0.091139
    50  C    0.033113
    51  C   -0.065766
    52  C    0.059905
    53  C   -0.054150
    54  C    0.029292
    55  C    0.006684
    60  C    0.144775
    61  C   -0.182083
    62  C    0.228439
    63  N   -0.304887
    64  C    0.191170
    65  C   -0.091150
 Electronic spatial extent (au):  <R**2>=          37742.5468
 Charge=              0.0000 electrons
 Dipole moment (field-independent basis, Debye):
    X=              0.0009    Y=              0.0099    Z=              6.3550  Tot=              6.3550
 Quadrupole moment (field-independent basis, Debye-Ang):
   XX=           -209.1016   YY=           -209.0625   ZZ=           -271.2004
   XY=             -0.0307   XZ=              4.0638   YZ=              9.8434
 Traceless Quadrupole moment (field-independent basis, Debye-Ang):
   XX=             20.6866   YY=             20.7257   ZZ=            -41.4122
   XY=             -0.0307   XZ=              4.0638   YZ=              9.8434
 Octapole moment (field-independent basis, Debye-Ang**2):
  XXX=           -468.1782  YYY=          -1125.5536  ZZZ=            838.5341  XYY=            -66.3716
  XXY=           -176.9480  XXZ=            322.3871  XZZ=           -173.2921  YZZ=           -422.5143
  YYZ=            335.4398  XYZ=              6.5636
 Hexadecapole moment (field-independent basis, Debye-Ang**3):
 XXXX=         -19791.7213 YYYY=         -23087.6655 ZZZZ=          -5642.3774 XXXY=           -452.4675
 XXXZ=            414.5018 YYYX=           -410.7921 YYYZ=           1723.0424 ZZZX=            528.1257
 ZZZY=           1313.3357 XXYY=          -6412.8270 XXZZ=          -5046.1639 YYZZ=          -5597.1842
 XXYZ=            302.4542 YYXZ=            410.2727 ZZXY=           -274.0681
 N-N= 3.989825930916D+03 E-N=-1.184913637081D+04  KE= 1.659872490673D+03
 No NMR shielding tensors so no spin-rotation constants.
 Leave Link  601 at Tue Jun 15 15:22:47 2021, MaxMem=  7864320000 cpu:               0.8 elap:               0.8
 (Enter /sw/linux/gaussian/g16/g16/l602.exe)
 FitSet:  NAtFit=    69 NAtPot=    69 NAtFrz=     0 MDM=    73 TotChg=   0.00000
 Merz-Kollman atomic radii used.

 **********************************************************************

            Electrostatic Properties Using The SCF Density.

 **********************************************************************

       Atomic Center    1 is at  -0.066620  0.366600  0.139560
       Atomic Center    2 is at   1.326890  0.337430  0.139170
       Atomic Center    3 is at   2.025810  1.543400  0.138650
       Atomic Center    4 is at   1.354340  2.764810  0.138070
       Atomic Center    5 is at  -0.039490  2.767110  0.137930
       Atomic Center    6 is at  -0.761450  1.574890  0.138590
       Atomic Center    7 is at  -0.620010 -0.566340  0.140050
       Atomic Center    8 is at   3.110460  1.530730  0.138250
       Atomic Center    9 is at  -0.570910  3.712740  0.136900
       Atomic Center   10 is at   1.717510  5.103650  0.956430
       Atomic Center   11 is at   2.109520  4.043190  0.137780
       Atomic Center   12 is at   3.230650  4.203220 -0.676030
       Atomic Center   13 is at   3.957830  5.393180 -0.686410
       Atomic Center   14 is at   3.546120  6.440330  0.139930
       Atomic Center   15 is at   2.433270  6.292440  0.955080
       Atomic Center   16 is at   0.861230  4.987610  1.611460
       Atomic Center   17 is at   3.543010  3.384240 -1.315430
       Atomic Center   18 is at   4.086740  7.380370  0.126160
       Atomic Center   19 is at   2.120470  7.110450  1.593940
       Atomic Center   20 is at   6.314710  6.149070 -1.119700
       Atomic Center   21 is at   5.141030  5.543740 -1.565540
       Atomic Center   22 is at   5.124360  5.085420 -2.885800
       Atomic Center   23 is at   6.149900  5.182240 -3.726000
       Atomic Center   24 is at   7.261430  5.760230 -3.274600
       Atomic Center   25 is at   7.390830  6.261700 -1.985790
       Atomic Center   26 is at   6.386860  6.509620 -0.099030
       Atomic Center   27 is at   4.222060  4.629600 -3.285780
       Atomic Center   28 is at   8.086660  5.824880 -3.977950
       Atomic Center   29 is at   8.319140  6.720590 -1.667650
       Atomic Center   30 is at   3.170730 -1.147200  0.957250
       Atomic Center   31 is at   2.056010 -0.956000  0.139170
       Atomic Center   32 is at   1.632670 -2.007010 -0.673900
       Atomic Center   33 is at   2.298340 -3.232420 -0.683710
       Atomic Center   34 is at   3.411440 -3.399920  0.142030
       Atomic Center   35 is at   3.841350 -2.362080  0.956170
       Atomic Center   36 is at   3.499430 -0.347490  1.611600
       Atomic Center   37 is at   0.767090 -1.867690 -1.313040
       Atomic Center   38 is at   3.954320 -4.338660  0.128620
       Atomic Center   39 is at   4.706410 -2.500560  1.594620
       Atomic Center   40 is at   1.771480 -5.651330 -1.113120
       Atomic Center   41 is at   1.835140 -4.332980 -1.561030
       Atomic Center   42 is at   1.445460 -4.090980 -2.881250
       Atomic Center   43 is at   1.014740 -5.028400 -3.719570
       Atomic Center   44 is at   0.958680 -6.279270 -3.266270
       Atomic Center   45 is at   1.329070 -6.640460 -1.977240
       Atomic Center   46 is at   2.048300 -5.892820 -0.092340
       Atomic Center   47 is at   1.502430 -3.082320 -3.282820
       Atomic Center   48 is at   0.600540 -7.026910 -3.968150
       Atomic Center   49 is at   1.261500 -7.673270 -1.657420
       Atomic Center   50 is at  -2.969180  0.723790  0.959790
       Atomic Center   51 is at  -2.246140  1.590190  0.138220
       Atomic Center   52 is at  -2.944540  2.478910 -0.678620
       Atomic Center   53 is at  -4.338620  2.514900 -0.688920
       Atomic Center   54 is at  -5.040380  1.638260  0.140500
       Atomic Center   55 is at  -4.356600  0.750530  0.958540
       Atomic Center   56 is at  -2.440980  0.041980  1.616980
       Atomic Center   57 is at  -2.390850  3.156280 -1.320310
       Atomic Center   58 is at  -6.124790  1.637460  0.126880
       Atomic Center   59 is at  -4.909140  0.073330  1.599800
       Atomic Center   60 is at  -6.170040  4.178530 -1.127150
       Atomic Center   61 is at  -5.059760  3.462250 -1.570950
       Atomic Center   62 is at  -4.654280  3.672660 -2.891850
       Atomic Center   63 is at  -5.249970  4.510670 -3.734420
       Atomic Center   64 is at  -6.305490  5.186810 -3.284900
       Atomic Center   65 is at  -6.804620  5.052390 -1.995730
       Atomic Center   66 is at  -6.518440  4.064060 -0.106130
       Atomic Center   67 is at  -3.808960  3.117080 -3.290180
       Atomic Center   68 is at  -6.773210  5.867760 -3.990170
       Atomic Center   69 is at  -7.665520  5.628810 -1.679270
    2828 points will be used for fitting atomic charges
 Fitting point charges to electrostatic potential
 Charges from ESP fit, RMS=   0.00171 RRMS=   0.13721:
 ESP charges:
               1
     1  C   -0.144738
     2  C    0.026154
     3  C   -0.142257
     4  C    0.027497
     5  C   -0.147850
     6  C    0.017643
     7  H    0.123707
     8  H    0.123551
     9  H    0.124857
    10  C   -0.089619
    11  C   -0.016857
    12  C   -0.034802
    13  C   -0.074908
    14  C   -0.059942
    15  C   -0.213100
    16  H    0.118272
    17  H    0.089830
    18  H    0.111619
    19  H    0.154035
    20  C    0.204865
    21  C   -0.233431
    22  C    0.442616
    23  N   -0.662302
    24  C    0.472678
    25  C   -0.558036
    26  H    0.083584
    27  H    0.029396
    28  H    0.027670
    29  H    0.203215
    30  C   -0.097345
    31  C   -0.009790
    32  C   -0.050840
    33  C   -0.054092
    34  C   -0.082235
    35  C   -0.197168
    36  H    0.117791
    37  H    0.095220
    38  H    0.117243
    39  H    0.150917
    40  C    0.166677
    41  C   -0.207163
    42  C    0.401427
    43  N   -0.633582
    44  C    0.427895
    45  C   -0.513079
    46  H    0.090714
    47  H    0.038268
    48  H    0.037819
    49  H    0.195801
    50  C   -0.108853
    51  C    0.013589
    52  C   -0.073250
    53  C   -0.015073
    54  C   -0.085508
    55  C   -0.200618
    56  H    0.120903
    57  H    0.100913
    58  H    0.117521
    59  H    0.153209
    60  C    0.241415
    61  C   -0.298819
    62  C    0.457138
    63  N   -0.661294
    64  C    0.472189
    65  C   -0.569877
    66  H    0.076056
    67  H    0.028103
    68  H    0.028934
    69  H    0.205501
 Sum of ESP charges =   0.00000
 ESP charges with hydrogens summed into heavy atoms:
               1
     1  C   -0.021031
     2  C    0.026154
     3  C   -0.018706
     4  C    0.027497
     5  C   -0.022994
     6  C    0.017643
    10  C    0.028653
    11  C   -0.016857
    12  C    0.055029
    13  C   -0.074908
    14  C    0.051676
    15  C   -0.059065
    20  C    0.288449
    21  C   -0.233431
    22  C    0.472012
    23  N   -0.662302
    24  C    0.500348
    25  C   -0.354821
    30  C    0.020447
    31  C   -0.009790
    32  C    0.044381
    33  C   -0.054092
    34  C    0.035007
    35  C   -0.046251
    40  C    0.257391
    41  C   -0.207163
    42  C    0.439695
    43  N   -0.633582
    44  C    0.465714
    45  C   -0.317278
    50  C    0.012050
    51  C    0.013589
    52  C    0.027663
    53  C   -0.015073
    54  C    0.032013
    55  C   -0.047409
    60  C    0.317471
    61  C   -0.298819
    62  C    0.485240
    63  N   -0.661294
    64  C    0.501123
    65  C   -0.364376
 Charge=   0.00000 Dipole=     0.0318     0.0198     6.3871 Tot=     6.3872
 -----------------------------------------------------------------

              Electrostatic Properties (Atomic Units)

 -----------------------------------------------------------------
    Center     Electric         -------- Electric Field --------
               Potential          X             Y             Z
 -----------------------------------------------------------------
    1 Atom    -14.767175
    2 Atom    -14.753178
    3 Atom    -14.767161
    4 Atom    -14.753184
    5 Atom    -14.767187
    6 Atom    -14.753199
    7 Atom     -1.097110
    8 Atom     -1.097100
    9 Atom     -1.097116
   10 Atom    -14.766643
   11 Atom    -14.753229
   12 Atom    -14.765948
   13 Atom    -14.751847
   14 Atom    -14.765792
   15 Atom    -14.765178
   16 Atom     -1.098101
   17 Atom     -1.096852
   18 Atom     -1.096570
   19 Atom     -1.098181
   20 Atom    -14.753985
   21 Atom    -14.752539
   22 Atom    -14.741039
   23 Atom    -18.409295
   24 Atom    -14.741404
   25 Atom    -14.763688
   26 Atom     -1.087975
   27 Atom     -1.106084
   28 Atom     -1.106331
   29 Atom     -1.091359
   30 Atom    -14.766629
   31 Atom    -14.753224
   32 Atom    -14.765953
   33 Atom    -14.751854
   34 Atom    -14.765798
   35 Atom    -14.765172
   36 Atom     -1.098092
   37 Atom     -1.096846
   38 Atom     -1.096577
   39 Atom     -1.098176
   40 Atom    -14.753999
   41 Atom    -14.752544
   42 Atom    -14.741035
   43 Atom    -18.409298
   44 Atom    -14.741409
   45 Atom    -14.763695
   46 Atom     -1.087989
   47 Atom     -1.106080
   48 Atom     -1.106334
   49 Atom     -1.091368
   50 Atom    -14.766637
   51 Atom    -14.753243
   52 Atom    -14.765964
   53 Atom    -14.751857
   54 Atom    -14.765791
   55 Atom    -14.765172
   56 Atom     -1.098108
   57 Atom     -1.096859
   58 Atom     -1.096568
   59 Atom     -1.098181
   60 Atom    -14.753994
   61 Atom    -14.752550
   62 Atom    -14.741048
   63 Atom    -18.409305
   64 Atom    -14.741418
   65 Atom    -14.763699
   66 Atom     -1.087978
   67 Atom     -1.106083
   68 Atom     -1.106342
   69 Atom     -1.091366
 -----------------------------------------------------------------
 Leave Link  602 at Tue Jun 15 15:22:48 2021, MaxMem=  7864320000 cpu:               1.4 elap:               1.5
 (Enter /sw/linux/gaussian/g16/g16/l9999.exe)
 1\1\GINC-THINC349\SP\RwB97XD\6-311G(d,p)\C39H27N3\LINK\15-Jun-2021\0\\
 #P wb97xd/6-311g(d,p) nosymm pop=MK\\Title Card Required\\0,1\C,0,-0.0
 6662,0.3666,0.13956\C,0,1.32689,0.33743,0.13917\C,0,2.02581,1.5434,0.1
 3865\C,0,1.35434,2.76481,0.13807\C,0,-0.03949,2.76711,0.13793\C,0,-0.7
 6145,1.57489,0.13859\H,0,-0.62001,-0.56634,0.14005\H,0,3.11046,1.53073
 ,0.13825\H,0,-0.57091,3.71274,0.1369\C,0,1.71751,5.10365,0.95643\C,0,2
 .10952,4.04319,0.13778\C,0,3.23065,4.20322,-0.67603\C,0,3.95783,5.3931
 8,-0.68641\C,0,3.54612,6.44033,0.13993\C,0,2.43327,6.29244,0.95508\H,0
 ,0.86123,4.98761,1.61146\H,0,3.54301,3.38424,-1.31543\H,0,4.08674,7.38
 037,0.12616\H,0,2.12047,7.11045,1.59394\C,0,6.31471,6.14907,-1.1197\C,
 0,5.14103,5.54374,-1.56554\C,0,5.12436,5.08542,-2.8858\N,0,6.1499,5.18
 224,-3.726\C,0,7.26143,5.76023,-3.2746\C,0,7.39083,6.2617,-1.98579\H,0
 ,6.38686,6.50962,-0.09903\H,0,4.22206,4.6296,-3.28578\H,0,8.08666,5.82
 488,-3.97795\H,0,8.31914,6.72059,-1.66765\C,0,3.17073,-1.1472,0.95725\
 C,0,2.05601,-0.956,0.13917\C,0,1.63267,-2.00701,-0.6739\C,0,2.29834,-3
 .23242,-0.68371\C,0,3.41144,-3.39992,0.14203\C,0,3.84135,-2.36208,0.95
 617\H,0,3.49943,-0.34749,1.6116\H,0,0.76709,-1.86769,-1.31304\H,0,3.95
 432,-4.33866,0.12862\H,0,4.70641,-2.50056,1.59462\C,0,1.77148,-5.65133
 ,-1.11312\C,0,1.83514,-4.33298,-1.56103\C,0,1.44546,-4.09098,-2.88125\
 N,0,1.01474,-5.0284,-3.71957\C,0,0.95868,-6.27927,-3.26627\C,0,1.32907
 ,-6.64046,-1.97724\H,0,2.0483,-5.89282,-0.09234\H,0,1.50243,-3.08232,-
 3.28282\H,0,0.60054,-7.02691,-3.96815\H,0,1.2615,-7.67327,-1.65742\C,0
 ,-2.96918,0.72379,0.95979\C,0,-2.24614,1.59019,0.13822\C,0,-2.94454,2.
 47891,-0.67862\C,0,-4.33862,2.5149,-0.68892\C,0,-5.04038,1.63826,0.140
 5\C,0,-4.3566,0.75053,0.95854\H,0,-2.44098,0.04198,1.61698\H,0,-2.3908
 5,3.15628,-1.32031\H,0,-6.12479,1.63746,0.12688\H,0,-4.90914,0.07333,1
 .5998\C,0,-6.17004,4.17853,-1.12715\C,0,-5.05976,3.46225,-1.57095\C,0,
 -4.65428,3.67266,-2.89185\N,0,-5.24997,4.51067,-3.73442\C,0,-6.30549,5
 .18681,-3.2849\C,0,-6.80462,5.05239,-1.99573\H,0,-6.51844,4.06406,-0.1
 0613\H,0,-3.80896,3.11708,-3.29018\H,0,-6.77321,5.86776,-3.99017\H,0,-
 7.66552,5.62881,-1.67927\\Version=ES64L-G16RevB.01\HF=-1666.4906113\RM
 SD=2.982e-09\Dipole=0.0003356,0.003876,2.5002499\Quadrupole=15.379954,
 15.4090315,-30.7889855,-0.0228016,3.0213224,7.3183361\PG=C01 [X(C39H27
 N3)]\\@


       THE DEATH-KNELL OF THE ATOM

 SO THE ATOMS IN TURN, WE NOW CLEARLY DISCERN,
 FLY TO BITS WITH THE UTMOST FACILITY;
 THEY WEND ON THEIR WAY, AND, IN SPLITTING, DISPLAY
 AN ABSOLUTE LACK OF STABILITY.

          SIR WM. RAMSAY, 1905
 Job cpu time:       0 days  0 hours 36 minutes 17.3 seconds.
 Elapsed time:       0 days  0 hours 36 minutes 17.4 seconds.
 File lengths (MBytes):  RWF=    458 Int=      0 D2E=      0 Chk=     50 Scr=      1
 Normal termination of Gaussian 16 at Tue Jun 15 15:22:48 2021.
