48
nN.log	Energy: -697932.1204383
C         12.54881       10.22822        9.18954
C         13.07062       11.53056        9.04819
C         12.28172       12.62274        9.31631
C         10.95083       12.39393        9.75904
C         10.51836       11.05487        9.85786
N         11.31118       10.00317        9.57144
C         10.05886       13.45433       10.12433
C          8.80233       13.19592       10.55143
C          8.31571       11.85206       10.65457
C          9.15501       10.77760       10.29279
C          6.99886       11.53923       11.08754
C          6.61643       10.21985       11.09285
C          7.52672        9.21704       10.70032
N          8.75633        9.49046       10.32404
H         14.08994       11.66874        8.70340
H         10.40739       14.47757       10.06183
H          8.14310       14.01357       10.81476
H          5.61993        9.94488       11.42203
C         12.83144       13.99192        9.13308
C         12.25828       14.87582        8.21678
C         12.79851       16.14003        8.02497
C         13.91631       16.53920        8.74876
C         14.49347       15.66589        9.66183
C         13.95592       14.39881        9.85076
H         11.39071       14.56240        7.64624
H         12.34763       16.81393        7.30537
H         14.33633       17.52740        8.60017
H         15.36401       15.97132       10.23116
H         14.40188       13.71885       10.56849
C          6.04113       12.58614       11.53144
C          4.82192       12.74545       10.87322
C          3.90856       13.70114       11.30031
C          4.20113       14.50530       12.39444
C          5.41163       14.34962       13.06012
C          6.32652       13.39795       12.63091
H          4.59713       12.12198       10.01467
H          2.96738       13.81845       10.77526
H          3.48823       15.25025       12.72889
H          5.64313       14.96872       13.91942
H          7.26750       13.27201       13.15544
C         13.41049        9.03320        8.88688
H         14.29797        9.02065        9.52652
H         12.83673        8.12298        9.05390
H         13.75413        9.05449        7.84843
C          7.10944        7.77210       10.71357
H          7.94362        7.15260       10.38807
H          6.80459        7.46408       11.71807
H          6.25814        7.60662       10.04656
