54
nN.log	Energy: -760334.7781661
N          0.04997       -0.00051        0.02131
C         -1.36208        0.04236        0.00301
C         -2.03578        0.97187       -0.79129
C         -3.42017        1.01493       -0.79852
C         -4.17846        0.12527       -0.03423
C         -3.49424       -0.80683        0.74906
C         -2.10998       -0.84540        0.77829
H         -1.46670        1.65833       -1.40715
H         -3.92291        1.73080       -1.43982
H         -4.05504       -1.49186        1.37574
H         -1.59865       -1.56438        1.40755
C          0.79458        1.19982        0.02819
C          1.95726        1.32027       -0.73506
C          2.68816        2.49668       -0.71812
C          2.27836        3.59563        0.04010
C          1.10921        3.46703        0.79317
C          0.38177        2.28842        0.79855
H          2.28248        0.48635       -1.34590
H          3.57632        2.57541       -1.33574
H          0.78149        4.29264        1.41562
H         -0.51204        2.20349        1.40537
C          0.71808       -1.24785        0.03018
C          1.83197       -1.44717        0.84803
C          2.48929       -2.66896        0.84594
C          2.03694       -3.71305        0.04770
C          0.92209       -3.51891       -0.75933
C          0.27059       -2.29420       -0.77873
H          2.17970       -0.63786        1.47937
H          3.35401       -2.80868        1.48493
H          2.54812       -4.66847        0.05457
H          0.56211       -4.32288       -1.39147
H         -0.59206       -2.14140       -1.41669
C         -5.66021        0.16793       -0.05443
C         -6.34188        1.38765       -0.04723
C         -6.40941       -1.01118       -0.08127
C         -7.72937        1.42736       -0.06769
H         -5.77776        2.31304       -0.00254
C         -7.79696       -0.97243       -0.09860
H         -5.89757       -1.96704       -0.11153
C         -8.46269        0.24728       -0.09263
H         -8.23978        2.38391       -0.05491
H         -8.36008       -1.89860       -0.12603
H         -9.54614        0.27805       -0.10736
C          3.05756        4.85682        0.04484
C          4.45402        4.83599        0.08804
C          2.41298        6.09591        0.00577
C          5.18344        6.01711        0.09061
H          4.97119        3.88407        0.14267
C          3.14153        7.27755        0.01146
H          1.33045        6.13177       -0.05241
C          4.53002        7.24294        0.05315
H          6.26632        5.97976        0.13118
H          2.62264        8.22887       -0.02607
H          5.09937        8.16536        0.05635
