64
nN.log	Energy: -905307.4976360
N          0.00119        0.00011        0.00088
C         -1.41050        0.06371       -0.00068
C         -2.07929        1.00197       -0.78855
C         -3.46291        1.06568       -0.77943
C         -4.22511        0.18873       -0.00445
C         -3.54569       -0.75194        0.77282
C         -2.16193       -0.81117        0.78560
H         -1.50723        1.67880       -1.41227
H         -3.96259        1.78789       -1.41597
H         -4.10925       -1.42702        1.40775
H         -1.65372       -1.53603        1.41066
C          0.76218        1.19069       -0.00020
C          1.91105        1.29983       -0.78548
C          2.65773        2.46642       -0.77650
C          2.27727        3.56621       -0.00433
C          1.12126        3.44894        0.77061
C          0.37843        2.28001        0.78371
H          2.21278        0.46518       -1.40733
H          3.53453        2.53716       -1.41108
H          0.81666        4.27542        1.40355
H         -0.50474        2.20324        1.40701
C          0.65147       -1.25449       -0.00085
C          1.78414       -1.46899        0.78614
C          2.42406       -2.69733        0.77276
C          1.94907       -3.75515       -0.00574
C          0.80896       -3.53249       -0.78113
C          0.17302       -2.30201       -0.78964
H          2.15769       -0.66719        1.41218
H          3.28989       -2.84880        1.40823
H          0.43326       -4.32576       -1.41832
H         -0.69884       -2.14391       -1.41356
C         -5.70620        0.25315       -0.00739
C         -6.36986        1.48267        0.00594
C         -6.47268       -0.91497       -0.02379
C         -7.75678        1.54253        0.00160
H         -5.79190        2.39984        0.04268
C         -7.85961       -0.85603       -0.02509
H         -5.97520       -1.87823       -0.05861
C         -8.50740        0.37323       -0.01312
H         -8.25300        2.50644        0.01893
H         -8.43643       -1.77393       -0.04466
H         -9.59038        0.41975       -0.01531
C          3.07299        4.81705       -0.00786
C          4.46958        4.77778        0.00907
C          2.44397        6.06454       -0.02856
C          5.21433        5.94930        0.00406
H          4.97521        3.81896        0.04919
C          3.18791        7.23654       -0.03053
H          1.36110        6.11476       -0.06624
C          4.57636        7.18365       -0.01496
H          6.29719        5.89769        0.02421
H          2.68096        8.19472       -0.05351
H          5.15767        8.09858       -0.01769
C          2.63324       -5.07035       -0.00948
C          1.89969       -6.25951        0.00231
C          4.02809       -5.15072       -0.02522
C          2.54076       -7.49085       -0.00287
H          0.81642       -6.21706        0.03852
C          4.66996       -6.38161       -0.02734
H          4.61408       -4.23856       -0.05885
C          3.92870       -7.55688       -0.01691
H          1.95367       -8.40228        0.01322
H          5.75327       -6.42268       -0.04639
H          4.42945       -8.51826       -0.01977
