 Entering Gaussian System, Link 0=g16
 Input=MK.com
 Output=MK.log
 Initial command:
 /sw/linux/gaussian/g16/g16/l1.exe "/usr/scratch/link/Gau-16241.inp" -scrdir="/usr/scratch/link/"
 Entering Link 1 = /sw/linux/gaussian/g16/g16/l1.exe PID=     16243.
  
 Copyright (c) 1988-2017, Gaussian, Inc.  All Rights Reserved.
  
 This is part of the Gaussian(R) 16 program.  It is based on
 the Gaussian(R) 09 system (copyright 2009, Gaussian, Inc.),
 the Gaussian(R) 03 system (copyright 2003, Gaussian, Inc.),
 the Gaussian(R) 98 system (copyright 1998, Gaussian, Inc.),
 the Gaussian(R) 94 system (copyright 1995, Gaussian, Inc.),
 the Gaussian 92(TM) system (copyright 1992, Gaussian, Inc.),
 the Gaussian 90(TM) system (copyright 1990, Gaussian, Inc.),
 the Gaussian 88(TM) system (copyright 1988, Gaussian, Inc.),
 the Gaussian 86(TM) system (copyright 1986, Carnegie Mellon
 University), and the Gaussian 82(TM) system (copyright 1983,
 Carnegie Mellon University). Gaussian is a federally registered
 trademark of Gaussian, Inc.
  
 This software contains proprietary and confidential information,
 including trade secrets, belonging to Gaussian, Inc.
  
 This software is provided under written license and may be
 used, copied, transmitted, or stored only in accord with that
 written license.
  
 The following legend is applicable only to US Government
 contracts under FAR:
  
                    RESTRICTED RIGHTS LEGEND
  
 Use, reproduction and disclosure by the US Government is
 subject to restrictions as set forth in subparagraphs (a)
 and (c) of the Commercial Computer Software - Restricted
 Rights clause in FAR 52.227-19.
  
 Gaussian, Inc.
 340 Quinnipiac St., Bldg. 40, Wallingford CT 06492
  
  
 ---------------------------------------------------------------
 Warning -- This program may not be used in any manner that
 competes with the business of Gaussian, Inc. or will provide
 assistance to any competitor of Gaussian, Inc.  The licensee
 of this program is prohibited from giving any competitor of
 Gaussian, Inc. access to this program.  By using this program,
 the user acknowledges that Gaussian, Inc. is engaged in the
 business of creating and licensing software in the field of
 computational chemistry and represents and warrants to the
 licensee that it is not a competitor of Gaussian, Inc. and that
 it will not use this program in any manner prohibited above.
 ---------------------------------------------------------------
  

 Cite this work as:
 Gaussian 16, Revision B.01,
 M. J. Frisch, G. W. Trucks, H. B. Schlegel, G. E. Scuseria, 
 M. A. Robb, J. R. Cheeseman, G. Scalmani, V. Barone, 
 G. A. Petersson, H. Nakatsuji, X. Li, M. Caricato, A. V. Marenich, 
 J. Bloino, B. G. Janesko, R. Gomperts, B. Mennucci, H. P. Hratchian, 
 J. V. Ortiz, A. F. Izmaylov, J. L. Sonnenberg, D. Williams-Young, 
 F. Ding, F. Lipparini, F. Egidi, J. Goings, B. Peng, A. Petrone, 
 T. Henderson, D. Ranasinghe, V. G. Zakrzewski, J. Gao, N. Rega, 
 G. Zheng, W. Liang, M. Hada, M. Ehara, K. Toyota, R. Fukuda, 
 J. Hasegawa, M. Ishida, T. Nakajima, Y. Honda, O. Kitao, H. Nakai, 
 T. Vreven, K. Throssell, J. A. Montgomery, Jr., J. E. Peralta, 
 F. Ogliaro, M. J. Bearpark, J. J. Heyd, E. N. Brothers, K. N. Kudin, 
 V. N. Staroverov, T. A. Keith, R. Kobayashi, J. Normand, 
 K. Raghavachari, A. P. Rendell, J. C. Burant, S. S. Iyengar, 
 J. Tomasi, M. Cossi, J. M. Millam, M. Klene, C. Adamo, R. Cammi, 
 J. W. Ochterski, R. L. Martin, K. Morokuma, O. Farkas, 
 J. B. Foresman, and D. J. Fox, Gaussian, Inc., Wallingford CT, 2016.
 
 ******************************************
 Gaussian 16:  ES64L-G16RevB.01 20-Dec-2017
                15-Jun-2021 
 ******************************************
 %mem=60000MB
 -----------------------------------
 #P wb97xd/6-311g(d,p) nosymm pop=MK
 -----------------------------------
 1/38=1,172=1/1;
 2/12=2,15=1,17=6,18=5,40=1/2;
 3/5=4,6=6,7=101,11=2,25=1,30=1,74=-58/1,2,3;
 4//1;
 5/5=2,38=5/2;
 6/7=2,8=2,9=2,10=2,15=8,20=1,28=1/1,2;
 99/5=1,9=1/99;
 Leave Link    1 at Tue Jun 15 14:46:25 2021, MaxMem=  7864320000 cpu:               0.0 elap:               0.0
 (Enter /sw/linux/gaussian/g16/g16/l101.exe)
 -------------------
 Title Card Required
 -------------------
 Symbolic Z-matrix:
 Charge =  0 Multiplicity = 1
 C                    -1.26259  -1.83196   0.19486 
 C                    -2.53128  -1.25856   0.0628 
 H                    -2.63754  -0.18747  -0.07537 
 C                    -3.64744  -2.0707    0.08168 
 C                    -3.53347  -3.45514   0.2272 
 C                    -2.27912  -4.0371    0.35654 
 H                    -2.17162  -5.10946   0.47781 
 C                    -1.15601  -3.22118   0.34029 
 H                    -0.1737   -3.66347   0.46476 
 C                    -5.10648  -1.66097  -0.04866 
 C                    -4.88091  -4.03937   0.2091 
 C                    -5.80968  -3.00635   0.04947 
 C                    -7.1664   -3.27054  -0.00152 
 H                    -7.88014  -2.46317  -0.12577 
 C                    -7.59323  -4.59087   0.10965 
 H                    -8.65238  -4.81877   0.07215 
 C                    -6.67122  -5.62349   0.26879 
 H                    -7.0221   -6.6458    0.35367 
 C                    -5.30745  -5.35693   0.31973 
 H                    -4.59346  -6.16389   0.44365 
 C                    -5.94616   0.35581  -1.0483 
 C                    -5.41064  -0.90355  -1.33231 
 C                    -5.21556  -1.31662  -2.63797 
 H                    -4.79794  -2.29519  -2.84929 
 C                    -5.56477  -0.45057  -3.67006 
 H                    -5.41916  -0.7551   -4.70018 
 C                    -6.09928   0.80589  -3.39172 
 H                    -6.36494   1.4673   -4.20864 
 C                    -6.29448   1.21997  -2.07878 
 H                    -6.71021   2.19909  -1.86702 
 C                    -5.54812  -0.65978   1.00792 
 C                    -6.03141   0.50809   0.41119 
 C                    -6.48484   1.56177   1.19494 
 H                    -6.86119   2.47148   0.73978 
 C                    -6.44727   1.42908   2.57862 
 H                    -6.79729   2.24123   3.20578 
 C                    -5.96452   0.26282   3.16917 
 H                    -5.94341   0.17795   4.2497 
 C                    -5.50998  -0.79306   2.38431 
 H                    -5.13296  -1.70297   2.83896 
 C                    -0.04751  -0.9821    0.18435 
 C                     1.09928  -1.39151  -0.50373 
 H                     1.10216  -2.32375  -1.05921 
 C                     2.21996  -0.58578  -0.49312 
 C                     2.22957   0.63314   0.18986 
 C                     1.0962    1.05214   0.87467 
 H                     1.08755   1.99152   1.41657 
 C                    -0.03067   0.24124   0.86652 
 H                    -0.91244   0.54832   1.4181 
 C                     3.55919  -0.83456  -1.16984 
 C                     3.54823   1.25385   0.0172 
 C                     4.33455   0.41287  -0.7746 
 C                     5.63398   0.74557  -1.10042 
 H                     6.23799   0.06895  -1.69624 
 C                     6.17326   1.94795  -0.63171 
 C                     5.37889   2.7862    0.1611 
 H                     5.7898    3.7286    0.50616 
 C                     4.07273   2.44978   0.4901 
 H                     3.47484   3.11853   1.09956 
 C                     4.46932  -2.95456  -1.83898 
 C                     4.22614  -2.13094  -0.73628 
 C                     4.57892  -2.52785   0.54102 
 H                     4.38752  -1.88165   1.39102 
 C                     5.18392  -3.77001   0.70945 
 H                     5.46914  -4.09914   1.70215 
 C                     5.42814  -4.59473  -0.38694 
 H                     5.90092  -5.55873  -0.2366 
 C                     5.07316  -4.19429  -1.67035 
 H                     5.26562  -4.83942  -2.52071 
 C                     3.45569  -1.03283  -2.6743 
 C                     3.98989  -2.26924  -3.04779 
 C                     3.99944  -2.65623  -4.382 
 H                     4.41179  -3.614    -4.68034 
 C                     3.46839  -1.79063  -5.33185 
 H                     3.4668   -2.07647  -6.37765 
 C                     2.93654  -0.55906  -4.95466 
 H                     2.52576   0.10157  -5.70962 
 C                     2.92683  -0.17081  -3.61805 
 H                     2.51308   0.78633  -3.31902 
 C                     7.56533   2.33072  -0.96998 
 C                     8.39596   2.91025  -0.00562 
 H                     8.03755   3.06212   1.00735 
 C                     9.68677   3.26198  -0.34588 
 C                     10.18031   3.04724  -1.63476 
 C                     9.36625   2.4703   -2.60083 
 H                     9.72974   2.3026   -3.60878 
 C                     8.06705   2.11847  -2.26056 
 H                     7.41602   1.68918  -3.01417 
 C                     10.74947   3.89467   0.5395 
 C                     11.57039   3.51875  -1.68734 
 C                     11.91727   4.0166   -0.42761 
 C                     13.17881   4.53057  -0.18802 
 H                     13.43964   4.91456   0.79242 
 C                     14.10246   4.54345  -1.22943 
 H                     15.09651   4.94212  -1.06195 
 C                     13.76121   4.04816  -2.48642 
 H                     14.49361   4.06625  -3.28561 
 C                     12.49272   3.53153  -2.72629 
 H                     12.23166   3.14701  -3.70626 
 C                     10.3745   5.16527   2.54362 
 C                     10.31664   5.21976   1.14817 
 C                     9.90335   6.36797   0.49668 
 H                     9.86137   6.40123  -0.58679 
 C                     9.54419   7.47504   1.26019 
 H                     9.21808   8.38461   0.76877 
 C                     9.60037   7.42534   2.65171 
 H                     9.31702   8.29741   3.2302 
 C                     10.01579   6.27041   3.30527 
 H                     10.05769   6.2364    4.38853 
 C                     11.06756   3.07766   1.78251 
 C                     10.84319   3.82943   2.93922 
 C                     11.06757   3.27413   4.19271 
 H                     10.89541   3.85047   5.09525 
 C                     11.51786   1.96087   4.26999 
 H                     11.6978   1.511     5.23984 
 C                     11.73996   1.21512   3.11395 
 H                     12.09016   0.1924    3.19464 
 C                     11.51518   1.771     1.85792 
 H                     11.68532   1.19431   0.95506 
 
 ITRead=  0  0  0  0  0  0  0  0  0  0  0  0  0  0  0  0  0  0  0  0
 ITRead=  0  0  0  0  0  0  0  0  0  0  0  0  0  0  0  0  0  0  0  0
 ITRead=  0  0  0  0  0  0  0  0  0  0  0  0  0  0  0  0  0  0  0  0
 ITRead=  0  0  0  0  0  0  0  0  0  0  0  0  0  0  0  0  0  0  0  0
 ITRead=  0  0  0  0  0  0  0  0  0  0  0  0  0  0  0  0  0  0  0  0
 ITRead=  0  0  0  0  0  0  0  0  0  0  0  0  0  0  0  0  0  0  0
 MicOpt= -1 -1 -1 -1 -1 -1 -1 -1 -1 -1 -1 -1 -1 -1 -1 -1 -1 -1 -1 -1
 MicOpt= -1 -1 -1 -1 -1 -1 -1 -1 -1 -1 -1 -1 -1 -1 -1 -1 -1 -1 -1 -1
 MicOpt= -1 -1 -1 -1 -1 -1 -1 -1 -1 -1 -1 -1 -1 -1 -1 -1 -1 -1 -1 -1
 MicOpt= -1 -1 -1 -1 -1 -1 -1 -1 -1 -1 -1 -1 -1 -1 -1 -1 -1 -1 -1 -1
 MicOpt= -1 -1 -1 -1 -1 -1 -1 -1 -1 -1 -1 -1 -1 -1 -1 -1 -1 -1 -1 -1
 MicOpt= -1 -1 -1 -1 -1 -1 -1 -1 -1 -1 -1 -1 -1 -1 -1 -1 -1 -1 -1
 NAtoms=    119 NQM=      119 NQMF=       0 NMMI=      0 NMMIF=      0
                NMic=       0 NMicF=      0.
                    Isotopes and Nuclear Properties:
 (Nuclear quadrupole moments (NQMom) in fm**2, nuclear magnetic moments (NMagM)
  in nuclear magnetons)

  Atom         1           2           3           4           5           6           7           8           9          10
 IAtWgt=          12          12           1          12          12          12           1          12           1          12
 AtmWgt=  12.0000000  12.0000000   1.0078250  12.0000000  12.0000000  12.0000000   1.0078250  12.0000000   1.0078250  12.0000000
 NucSpn=           0           0           1           0           0           0           1           0           1           0
 AtZEff=   0.0000000   0.0000000   0.0000000   0.0000000   0.0000000   0.0000000   0.0000000   0.0000000   0.0000000   0.0000000
 NQMom=    0.0000000   0.0000000   0.0000000   0.0000000   0.0000000   0.0000000   0.0000000   0.0000000   0.0000000   0.0000000
 NMagM=    0.0000000   0.0000000   2.7928460   0.0000000   0.0000000   0.0000000   2.7928460   0.0000000   2.7928460   0.0000000
 AtZNuc=   6.0000000   6.0000000   1.0000000   6.0000000   6.0000000   6.0000000   1.0000000   6.0000000   1.0000000   6.0000000

  Atom        11          12          13          14          15          16          17          18          19          20
 IAtWgt=          12          12          12           1          12           1          12           1          12           1
 AtmWgt=  12.0000000  12.0000000  12.0000000   1.0078250  12.0000000   1.0078250  12.0000000   1.0078250  12.0000000   1.0078250
 NucSpn=           0           0           0           1           0           1           0           1           0           1
 AtZEff=   0.0000000   0.0000000   0.0000000   0.0000000   0.0000000   0.0000000   0.0000000   0.0000000   0.0000000   0.0000000
 NQMom=    0.0000000   0.0000000   0.0000000   0.0000000   0.0000000   0.0000000   0.0000000   0.0000000   0.0000000   0.0000000
 NMagM=    0.0000000   0.0000000   0.0000000   2.7928460   0.0000000   2.7928460   0.0000000   2.7928460   0.0000000   2.7928460
 AtZNuc=   6.0000000   6.0000000   6.0000000   1.0000000   6.0000000   1.0000000   6.0000000   1.0000000   6.0000000   1.0000000

  Atom        21          22          23          24          25          26          27          28          29          30
 IAtWgt=          12          12          12           1          12           1          12           1          12           1
 AtmWgt=  12.0000000  12.0000000  12.0000000   1.0078250  12.0000000   1.0078250  12.0000000   1.0078250  12.0000000   1.0078250
 NucSpn=           0           0           0           1           0           1           0           1           0           1
 AtZEff=   0.0000000   0.0000000   0.0000000   0.0000000   0.0000000   0.0000000   0.0000000   0.0000000   0.0000000   0.0000000
 NQMom=    0.0000000   0.0000000   0.0000000   0.0000000   0.0000000   0.0000000   0.0000000   0.0000000   0.0000000   0.0000000
 NMagM=    0.0000000   0.0000000   0.0000000   2.7928460   0.0000000   2.7928460   0.0000000   2.7928460   0.0000000   2.7928460
 AtZNuc=   6.0000000   6.0000000   6.0000000   1.0000000   6.0000000   1.0000000   6.0000000   1.0000000   6.0000000   1.0000000

  Atom        31          32          33          34          35          36          37          38          39          40
 IAtWgt=          12          12          12           1          12           1          12           1          12           1
 AtmWgt=  12.0000000  12.0000000  12.0000000   1.0078250  12.0000000   1.0078250  12.0000000   1.0078250  12.0000000   1.0078250
 NucSpn=           0           0           0           1           0           1           0           1           0           1
 AtZEff=   0.0000000   0.0000000   0.0000000   0.0000000   0.0000000   0.0000000   0.0000000   0.0000000   0.0000000   0.0000000
 NQMom=    0.0000000   0.0000000   0.0000000   0.0000000   0.0000000   0.0000000   0.0000000   0.0000000   0.0000000   0.0000000
 NMagM=    0.0000000   0.0000000   0.0000000   2.7928460   0.0000000   2.7928460   0.0000000   2.7928460   0.0000000   2.7928460
 AtZNuc=   6.0000000   6.0000000   6.0000000   1.0000000   6.0000000   1.0000000   6.0000000   1.0000000   6.0000000   1.0000000

  Atom        41          42          43          44          45          46          47          48          49          50
 IAtWgt=          12          12           1          12          12          12           1          12           1          12
 AtmWgt=  12.0000000  12.0000000   1.0078250  12.0000000  12.0000000  12.0000000   1.0078250  12.0000000   1.0078250  12.0000000
 NucSpn=           0           0           1           0           0           0           1           0           1           0
 AtZEff=   0.0000000   0.0000000   0.0000000   0.0000000   0.0000000   0.0000000   0.0000000   0.0000000   0.0000000   0.0000000
 NQMom=    0.0000000   0.0000000   0.0000000   0.0000000   0.0000000   0.0000000   0.0000000   0.0000000   0.0000000   0.0000000
 NMagM=    0.0000000   0.0000000   2.7928460   0.0000000   0.0000000   0.0000000   2.7928460   0.0000000   2.7928460   0.0000000
 AtZNuc=   6.0000000   6.0000000   1.0000000   6.0000000   6.0000000   6.0000000   1.0000000   6.0000000   1.0000000   6.0000000

  Atom        51          52          53          54          55          56          57          58          59          60
 IAtWgt=          12          12          12           1          12          12           1          12           1          12
 AtmWgt=  12.0000000  12.0000000  12.0000000   1.0078250  12.0000000  12.0000000   1.0078250  12.0000000   1.0078250  12.0000000
 NucSpn=           0           0           0           1           0           0           1           0           1           0
 AtZEff=   0.0000000   0.0000000   0.0000000   0.0000000   0.0000000   0.0000000   0.0000000   0.0000000   0.0000000   0.0000000
 NQMom=    0.0000000   0.0000000   0.0000000   0.0000000   0.0000000   0.0000000   0.0000000   0.0000000   0.0000000   0.0000000
 NMagM=    0.0000000   0.0000000   0.0000000   2.7928460   0.0000000   0.0000000   2.7928460   0.0000000   2.7928460   0.0000000
 AtZNuc=   6.0000000   6.0000000   6.0000000   1.0000000   6.0000000   6.0000000   1.0000000   6.0000000   1.0000000   6.0000000

  Atom        61          62          63          64          65          66          67          68          69          70
 IAtWgt=          12          12           1          12           1          12           1          12           1          12
 AtmWgt=  12.0000000  12.0000000   1.0078250  12.0000000   1.0078250  12.0000000   1.0078250  12.0000000   1.0078250  12.0000000
 NucSpn=           0           0           1           0           1           0           1           0           1           0
 AtZEff=   0.0000000   0.0000000   0.0000000   0.0000000   0.0000000   0.0000000   0.0000000   0.0000000   0.0000000   0.0000000
 NQMom=    0.0000000   0.0000000   0.0000000   0.0000000   0.0000000   0.0000000   0.0000000   0.0000000   0.0000000   0.0000000
 NMagM=    0.0000000   0.0000000   2.7928460   0.0000000   2.7928460   0.0000000   2.7928460   0.0000000   2.7928460   0.0000000
 AtZNuc=   6.0000000   6.0000000   1.0000000   6.0000000   1.0000000   6.0000000   1.0000000   6.0000000   1.0000000   6.0000000

  Atom        71          72          73          74          75          76          77          78          79          80
 IAtWgt=          12          12           1          12           1          12           1          12           1          12
 AtmWgt=  12.0000000  12.0000000   1.0078250  12.0000000   1.0078250  12.0000000   1.0078250  12.0000000   1.0078250  12.0000000
 NucSpn=           0           0           1           0           1           0           1           0           1           0
 AtZEff=   0.0000000   0.0000000   0.0000000   0.0000000   0.0000000   0.0000000   0.0000000   0.0000000   0.0000000   0.0000000
 NQMom=    0.0000000   0.0000000   0.0000000   0.0000000   0.0000000   0.0000000   0.0000000   0.0000000   0.0000000   0.0000000
 NMagM=    0.0000000   0.0000000   2.7928460   0.0000000   2.7928460   0.0000000   2.7928460   0.0000000   2.7928460   0.0000000
 AtZNuc=   6.0000000   6.0000000   1.0000000   6.0000000   1.0000000   6.0000000   1.0000000   6.0000000   1.0000000   6.0000000

  Atom        81          82          83          84          85          86          87          88          89          90
 IAtWgt=          12           1          12          12          12           1          12           1          12          12
 AtmWgt=  12.0000000   1.0078250  12.0000000  12.0000000  12.0000000   1.0078250  12.0000000   1.0078250  12.0000000  12.0000000
 NucSpn=           0           1           0           0           0           1           0           1           0           0
 AtZEff=   0.0000000   0.0000000   0.0000000   0.0000000   0.0000000   0.0000000   0.0000000   0.0000000   0.0000000   0.0000000
 NQMom=    0.0000000   0.0000000   0.0000000   0.0000000   0.0000000   0.0000000   0.0000000   0.0000000   0.0000000   0.0000000
 NMagM=    0.0000000   2.7928460   0.0000000   0.0000000   0.0000000   2.7928460   0.0000000   2.7928460   0.0000000   0.0000000
 AtZNuc=   6.0000000   1.0000000   6.0000000   6.0000000   6.0000000   1.0000000   6.0000000   1.0000000   6.0000000   6.0000000

  Atom        91          92          93          94          95          96          97          98          99         100
 IAtWgt=          12          12           1          12           1          12           1          12           1          12
 AtmWgt=  12.0000000  12.0000000   1.0078250  12.0000000   1.0078250  12.0000000   1.0078250  12.0000000   1.0078250  12.0000000
 NucSpn=           0           0           1           0           1           0           1           0           1           0
 AtZEff=   0.0000000   0.0000000   0.0000000   0.0000000   0.0000000   0.0000000   0.0000000   0.0000000   0.0000000   0.0000000
 NQMom=    0.0000000   0.0000000   0.0000000   0.0000000   0.0000000   0.0000000   0.0000000   0.0000000   0.0000000   0.0000000
 NMagM=    0.0000000   0.0000000   2.7928460   0.0000000   2.7928460   0.0000000   2.7928460   0.0000000   2.7928460   0.0000000
 AtZNuc=   6.0000000   6.0000000   1.0000000   6.0000000   1.0000000   6.0000000   1.0000000   6.0000000   1.0000000   6.0000000

  Atom       101         102         103         104         105         106         107         108         109         110
 IAtWgt=          12          12           1          12           1          12           1          12           1          12
 AtmWgt=  12.0000000  12.0000000   1.0078250  12.0000000   1.0078250  12.0000000   1.0078250  12.0000000   1.0078250  12.0000000
 NucSpn=           0           0           1           0           1           0           1           0           1           0
 AtZEff=   0.0000000   0.0000000   0.0000000   0.0000000   0.0000000   0.0000000   0.0000000   0.0000000   0.0000000   0.0000000
 NQMom=    0.0000000   0.0000000   0.0000000   0.0000000   0.0000000   0.0000000   0.0000000   0.0000000   0.0000000   0.0000000
 NMagM=    0.0000000   0.0000000   2.7928460   0.0000000   2.7928460   0.0000000   2.7928460   0.0000000   2.7928460   0.0000000
 AtZNuc=   6.0000000   6.0000000   1.0000000   6.0000000   1.0000000   6.0000000   1.0000000   6.0000000   1.0000000   6.0000000

  Atom       111         112         113         114         115         116         117         118         119
 IAtWgt=          12          12           1          12           1          12           1          12           1
 AtmWgt=  12.0000000  12.0000000   1.0078250  12.0000000   1.0078250  12.0000000   1.0078250  12.0000000   1.0078250
 NucSpn=           0           0           1           0           1           0           1           0           1
 AtZEff=   0.0000000   0.0000000   0.0000000   0.0000000   0.0000000   0.0000000   0.0000000   0.0000000   0.0000000
 NQMom=    0.0000000   0.0000000   0.0000000   0.0000000   0.0000000   0.0000000   0.0000000   0.0000000   0.0000000
 NMagM=    0.0000000   0.0000000   2.7928460   0.0000000   2.7928460   0.0000000   2.7928460   0.0000000   2.7928460
 AtZNuc=   6.0000000   6.0000000   1.0000000   6.0000000   1.0000000   6.0000000   1.0000000   6.0000000   1.0000000
 Leave Link  101 at Tue Jun 15 14:46:25 2021, MaxMem=  7864320000 cpu:               0.2 elap:               0.2
 (Enter /sw/linux/gaussian/g16/g16/l202.exe)
 Symmetry turned off by external request.
 Stoichiometry    C75H44
 Framework group  C1[X(C75H44)]
 Deg. of freedom   351
 Full point group                 C1      NOp   1
                          Input orientation:                          
 ---------------------------------------------------------------------
 Center     Atomic      Atomic             Coordinates (Angstroms)
 Number     Number       Type             X           Y           Z
 ---------------------------------------------------------------------
      1          6           0       -1.262590   -1.831960    0.194860
      2          6           0       -2.531280   -1.258560    0.062800
      3          1           0       -2.637540   -0.187470   -0.075370
      4          6           0       -3.647440   -2.070700    0.081680
      5          6           0       -3.533470   -3.455140    0.227200
      6          6           0       -2.279120   -4.037100    0.356540
      7          1           0       -2.171620   -5.109460    0.477810
      8          6           0       -1.156010   -3.221180    0.340290
      9          1           0       -0.173700   -3.663470    0.464760
     10          6           0       -5.106480   -1.660970   -0.048660
     11          6           0       -4.880910   -4.039370    0.209100
     12          6           0       -5.809680   -3.006350    0.049470
     13          6           0       -7.166400   -3.270540   -0.001520
     14          1           0       -7.880140   -2.463170   -0.125770
     15          6           0       -7.593230   -4.590870    0.109650
     16          1           0       -8.652380   -4.818770    0.072150
     17          6           0       -6.671220   -5.623490    0.268790
     18          1           0       -7.022100   -6.645800    0.353670
     19          6           0       -5.307450   -5.356930    0.319730
     20          1           0       -4.593460   -6.163890    0.443650
     21          6           0       -5.946160    0.355810   -1.048300
     22          6           0       -5.410640   -0.903550   -1.332310
     23          6           0       -5.215560   -1.316620   -2.637970
     24          1           0       -4.797940   -2.295190   -2.849290
     25          6           0       -5.564770   -0.450570   -3.670060
     26          1           0       -5.419160   -0.755100   -4.700180
     27          6           0       -6.099280    0.805890   -3.391720
     28          1           0       -6.364940    1.467300   -4.208640
     29          6           0       -6.294480    1.219970   -2.078780
     30          1           0       -6.710210    2.199090   -1.867020
     31          6           0       -5.548120   -0.659780    1.007920
     32          6           0       -6.031410    0.508090    0.411190
     33          6           0       -6.484840    1.561770    1.194940
     34          1           0       -6.861190    2.471480    0.739780
     35          6           0       -6.447270    1.429080    2.578620
     36          1           0       -6.797290    2.241230    3.205780
     37          6           0       -5.964520    0.262820    3.169170
     38          1           0       -5.943410    0.177950    4.249700
     39          6           0       -5.509980   -0.793060    2.384310
     40          1           0       -5.132960   -1.702970    2.838960
     41          6           0       -0.047510   -0.982100    0.184350
     42          6           0        1.099280   -1.391510   -0.503730
     43          1           0        1.102160   -2.323750   -1.059210
     44          6           0        2.219960   -0.585780   -0.493120
     45          6           0        2.229570    0.633140    0.189860
     46          6           0        1.096200    1.052140    0.874670
     47          1           0        1.087550    1.991520    1.416570
     48          6           0       -0.030670    0.241240    0.866520
     49          1           0       -0.912440    0.548320    1.418100
     50          6           0        3.559190   -0.834560   -1.169840
     51          6           0        3.548230    1.253850    0.017200
     52          6           0        4.334550    0.412870   -0.774600
     53          6           0        5.633980    0.745570   -1.100420
     54          1           0        6.237990    0.068950   -1.696240
     55          6           0        6.173260    1.947950   -0.631710
     56          6           0        5.378890    2.786200    0.161100
     57          1           0        5.789800    3.728600    0.506160
     58          6           0        4.072730    2.449780    0.490100
     59          1           0        3.474840    3.118530    1.099560
     60          6           0        4.469320   -2.954560   -1.838980
     61          6           0        4.226140   -2.130940   -0.736280
     62          6           0        4.578920   -2.527850    0.541020
     63          1           0        4.387520   -1.881650    1.391020
     64          6           0        5.183920   -3.770010    0.709450
     65          1           0        5.469140   -4.099140    1.702150
     66          6           0        5.428140   -4.594730   -0.386940
     67          1           0        5.900920   -5.558730   -0.236600
     68          6           0        5.073160   -4.194290   -1.670350
     69          1           0        5.265620   -4.839420   -2.520710
     70          6           0        3.455690   -1.032830   -2.674300
     71          6           0        3.989890   -2.269240   -3.047790
     72          6           0        3.999440   -2.656230   -4.382000
     73          1           0        4.411790   -3.614000   -4.680340
     74          6           0        3.468390   -1.790630   -5.331850
     75          1           0        3.466800   -2.076470   -6.377650
     76          6           0        2.936540   -0.559060   -4.954660
     77          1           0        2.525760    0.101570   -5.709620
     78          6           0        2.926830   -0.170810   -3.618050
     79          1           0        2.513080    0.786330   -3.319020
     80          6           0        7.565330    2.330720   -0.969980
     81          6           0        8.395960    2.910250   -0.005620
     82          1           0        8.037550    3.062120    1.007350
     83          6           0        9.686770    3.261980   -0.345880
     84          6           0       10.180310    3.047240   -1.634760
     85          6           0        9.366250    2.470300   -2.600830
     86          1           0        9.729740    2.302600   -3.608780
     87          6           0        8.067050    2.118470   -2.260560
     88          1           0        7.416020    1.689180   -3.014170
     89          6           0       10.749470    3.894670    0.539500
     90          6           0       11.570390    3.518750   -1.687340
     91          6           0       11.917270    4.016600   -0.427610
     92          6           0       13.178810    4.530570   -0.188020
     93          1           0       13.439640    4.914560    0.792420
     94          6           0       14.102460    4.543450   -1.229430
     95          1           0       15.096510    4.942120   -1.061950
     96          6           0       13.761210    4.048160   -2.486420
     97          1           0       14.493610    4.066250   -3.285610
     98          6           0       12.492720    3.531530   -2.726290
     99          1           0       12.231660    3.147010   -3.706260
    100          6           0       10.374500    5.165270    2.543620
    101          6           0       10.316640    5.219760    1.148170
    102          6           0        9.903350    6.367970    0.496680
    103          1           0        9.861370    6.401230   -0.586790
    104          6           0        9.544190    7.475040    1.260190
    105          1           0        9.218080    8.384610    0.768770
    106          6           0        9.600370    7.425340    2.651710
    107          1           0        9.317020    8.297410    3.230200
    108          6           0       10.015790    6.270410    3.305270
    109          1           0       10.057690    6.236400    4.388530
    110          6           0       11.067560    3.077660    1.782510
    111          6           0       10.843190    3.829430    2.939220
    112          6           0       11.067570    3.274130    4.192710
    113          1           0       10.895410    3.850470    5.095250
    114          6           0       11.517860    1.960870    4.269990
    115          1           0       11.697800    1.511000    5.239840
    116          6           0       11.739960    1.215120    3.113950
    117          1           0       12.090160    0.192400    3.194640
    118          6           0       11.515180    1.771000    1.857920
    119          1           0       11.685320    1.194310    0.955060
 ---------------------------------------------------------------------
 Rotational constants (GHZ):           0.0585683           0.0100562           0.0096176
 Leave Link  202 at Tue Jun 15 14:46:25 2021, MaxMem=  7864320000 cpu:               0.0 elap:               0.0
 (Enter /sw/linux/gaussian/g16/g16/l301.exe)
 Standard basis: 6-311G(d,p) (5D, 7F)
 Ernie: Thresh=  0.10000D-02 Tol=  0.10000D-05 Strict=F.
  1614 basis functions,  2752 primitive gaussians,  1689 cartesian basis functions
   247 alpha electrons      247 beta electrons
       nuclear repulsion energy     10051.8943948015 Hartrees.
 IExCor= 4639 DFT=T Ex+Corr=wB97XD ExCW=0 ScaHFX=  1.000000
 ScaDFX=  1.000000  1.000000  1.000000  1.000000 ScalE2=  1.000000  1.000000
 IRadAn=      5 IRanWt=     -1 IRanGd=            0 ICorTp=0 IEmpDi=121
 HFx  wShort=  0.000000 wLong=  0.200000 cFull=  0.222036 cShort=  0.000000 cLong=  0.777964
 DFx  wShort=  0.000000 wLong=  0.200000 cFull=  0.000000 cShort=  0.000000 cLong=  1.000000
 NAtoms=  119 NActive=  119 NUniq=  119 SFac= 1.00D+00 NAtFMM=   60 NAOKFM=T Big=T
 Integral buffers will be    131072 words long.
 Raffenetti 2 integral format.
 Two-electron integral symmetry is turned off.
 R6Disp:  Grimme-D2 Dispersion energy=       -0.1172062221 Hartrees.
 Nuclear repulsion after empirical dispersion term =    10051.7771885794 Hartrees.
 Leave Link  301 at Tue Jun 15 14:46:25 2021, MaxMem=  7864320000 cpu:               0.1 elap:               0.1
 (Enter /sw/linux/gaussian/g16/g16/l302.exe)
 NPDir=0 NMtPBC=     1 NCelOv=     1 NCel=       1 NClECP=     1 NCelD=      1
         NCelK=      1 NCelE2=     1 NClLst=     1 CellRange=     0.0.
 One-electron integrals computed using PRISM.
 NBasis=  1614 RedAO= T EigKep=  8.94D-05  NBF=  1614
 NBsUse=  1614 1.00D-06 EigRej= -1.00D+00 NBFU=  1614
 Precomputing XC quadrature grid using
 IXCGrd= 4 IRadAn=           5 IRanWt=          -1 IRanGd=           0 AccXCQ= 0.00D+00.
 Generated NRdTot=       0 NPtTot=           0 NUsed=           0 NTot=          32
 NSgBfM=  1458  1439  1455  1456  1458 MxSgAt=   119 MxSgA2=   119.
 Leave Link  302 at Tue Jun 15 14:46:47 2021, MaxMem=  7864320000 cpu:              22.0 elap:              22.0
 (Enter /sw/linux/gaussian/g16/g16/l303.exe)
 DipDrv:  MaxL=1.
 Leave Link  303 at Tue Jun 15 14:46:47 2021, MaxMem=  7864320000 cpu:               0.3 elap:               0.3
 (Enter /sw/linux/gaussian/g16/g16/l401.exe)
 ExpMin= 1.03D-01 ExpMax= 4.56D+03 ExpMxC= 6.82D+02 IAcc=3 IRadAn=         5 AccDes= 0.00D+00
 Harris functional with IExCor= 4639 and IRadAn=       5 diagonalized for initial guess.
 HarFok:  IExCor= 4639 AccDes= 0.00D+00 IRadAn=         5 IDoV= 1 UseB2=F ITyADJ=14
 ICtDFT=  3500011 ScaDFX=  1.000000  1.000000  1.000000  1.000000
 FoFCou: FMM=F IPFlag=           0 FMFlag=      100000 FMFlg1=        2001
         NFxFlg=           0 DoJE=T BraDBF=F KetDBF=T FulRan=T
         wScrn=  0.000000 ICntrl=       500 IOpCl=  0 I1Cent=   200000004 NGrid=           0
         NMat0=    1 NMatS0=      1 NMatT0=    0 NMatD0=    1 NMtDS0=    0 NMtDT0=    0
 Symmetry not used in FoFCou.
 Harris En= -2753.76287353074    
 JPrj=0 DoOrth=F DoCkMO=F.
 Leave Link  401 at Tue Jun 15 14:49:59 2021, MaxMem=  7864320000 cpu:             191.8 elap:             191.8
 (Enter /sw/linux/gaussian/g16/g16/l502.exe)
 Two-electron integral symmetry not used.
 Closed shell SCF:
 Using DIIS extrapolation, IDIIS=  1040.
 NGot=  7864320000 LenX=  7858592124 LenY=  7855737714
 Requested convergence on RMS density matrix=1.00D-08 within 128 cycles.
 Requested convergence on MAX density matrix=1.00D-06.
 Requested convergence on             energy=1.00D-06.
 No special actions if energy rises.
 Fock matrices will be formed incrementally for  20 cycles.
 Integral accuracy reduced to 1.0D-05 until final iterations.

 Cycle   1  Pass 0  IDiag  1:
 FoFJK:  IHMeth= 1 ICntrl=       0 DoSepK=T KAlg= 0 I1Cent=           0 FoldK=F
 IRaf=         1 NMat=       1 IRICut=       1 DoRegI=T DoRafI=F ISym2E= 0 IDoP0=0 IntGTp=1.
 FoFCou: FMM=T IPFlag=           0 FMFlag=      100000 FMFlg1=        2001
         NFxFlg=           0 DoJE=T BraDBF=F KetDBF=F FulRan=T
         wScrn=  0.000000 ICntrl=       500 IOpCl=  0 I1Cent=           0 NGrid=           0
         NMat0=    1 NMatS0=      1 NMatT0=    0 NMatD0=    1 NMtDS0=    0 NMtDT0=    0
 Symmetry not used in FoFCou.
 FMM levels:  10  Number of levels for PrismC:   9
 E= -2883.66047587294    
 DIIS: error= 6.00D-02 at cycle   1 NSaved=   1.
 NSaved= 1 IEnMin= 1 EnMin= -2883.66047587294     IErMin= 1 ErrMin= 6.00D-02
 ErrMax= 6.00D-02  0.00D+00 EMaxC= 1.00D-01 BMatC= 5.96D+00 BMatP= 5.96D+00
 IDIUse=3 WtCom= 4.00D-01 WtEn= 6.00D-01
 Coeff-Com:  0.100D+01
 Coeff-En:   0.100D+01
 Coeff:      0.100D+01
 Gap=     0.264 Goal=   None    Shift=    0.000
 GapD=    0.264 DampG=1.000 DampE=0.500 DampFc=0.5000 IDamp=-1.
 Damping current iteration by 5.00D-01
 RMSDP=1.15D-03 MaxDP=2.12D-01              OVMax= 5.38D-02

 Cycle   2  Pass 0  IDiag  1:
 RMSU=  5.37D-04    CP:  9.58D-01
 E= -2883.96288425305     Delta-E=       -0.302408380114 Rises=F Damp=T
 DIIS: error= 2.93D-02 at cycle   2 NSaved=   2.
 NSaved= 2 IEnMin= 2 EnMin= -2883.96288425305     IErMin= 2 ErrMin= 2.93D-02
 ErrMax= 2.93D-02  0.00D+00 EMaxC= 1.00D-01 BMatC= 1.35D+00 BMatP= 5.96D+00
 IDIUse=3 WtCom= 7.07D-01 WtEn= 2.93D-01
 Coeff-Com: -0.867D+00 0.187D+01
 Coeff-En:   0.000D+00 0.100D+01
 Coeff:     -0.613D+00 0.161D+01
 Gap=     0.269 Goal=   None    Shift=    0.000
 RMSDP=6.38D-04 MaxDP=1.05D-01 DE=-3.02D-01 OVMax= 5.51D-02

 Cycle   3  Pass 0  IDiag  1:
 RMSU=  3.60D-04    CP:  9.11D-01  1.88D+00
 E= -2884.20046982686     Delta-E=       -0.237585573814 Rises=F Damp=F
 DIIS: error= 1.03D-02 at cycle   3 NSaved=   3.
 NSaved= 3 IEnMin= 3 EnMin= -2884.20046982686     IErMin= 3 ErrMin= 1.03D-02
 ErrMax= 1.03D-02  0.00D+00 EMaxC= 1.00D-01 BMatC= 6.82D-02 BMatP= 1.35D+00
 IDIUse=3 WtCom= 8.97D-01 WtEn= 1.03D-01
 Coeff-Com: -0.426D+00 0.905D+00 0.521D+00
 Coeff-En:   0.000D+00 0.000D+00 0.100D+01
 Coeff:     -0.382D+00 0.812D+00 0.570D+00
 Gap=     0.270 Goal=   None    Shift=    0.000
 RMSDP=2.24D-04 MaxDP=1.21D-02 DE=-2.38D-01 OVMax= 3.77D-02

 Cycle   4  Pass 0  IDiag  1:
 RMSU=  1.02D-04    CP:  9.13D-01  1.99D+00  4.69D-01
 E= -2884.26164654203     Delta-E=       -0.061176715164 Rises=F Damp=F
 DIIS: error= 3.21D-03 at cycle   4 NSaved=   4.
 NSaved= 4 IEnMin= 4 EnMin= -2884.26164654203     IErMin= 4 ErrMin= 3.21D-03
 ErrMax= 3.21D-03  0.00D+00 EMaxC= 1.00D-01 BMatC= 5.74D-03 BMatP= 6.82D-02
 IDIUse=3 WtCom= 9.68D-01 WtEn= 3.21D-02
 Coeff-Com: -0.157D+00 0.335D+00 0.306D+00 0.516D+00
 Coeff-En:   0.000D+00 0.000D+00 0.209D-01 0.979D+00
 Coeff:     -0.152D+00 0.324D+00 0.296D+00 0.531D+00
 Gap=     0.269 Goal=   None    Shift=    0.000
 RMSDP=6.59D-05 MaxDP=5.96D-03 DE=-6.12D-02 OVMax= 1.00D-02

 Cycle   5  Pass 0  IDiag  1:
 RMSU=  2.83D-05    CP:  9.12D-01  1.99D+00  6.07D-01  6.85D-01
 E= -2884.26759262372     Delta-E=       -0.005946081690 Rises=F Damp=F
 DIIS: error= 4.85D-04 at cycle   5 NSaved=   5.
 NSaved= 5 IEnMin= 5 EnMin= -2884.26759262372     IErMin= 5 ErrMin= 4.85D-04
 ErrMax= 4.85D-04  0.00D+00 EMaxC= 1.00D-01 BMatC= 1.21D-04 BMatP= 5.74D-03
 IDIUse=3 WtCom= 9.95D-01 WtEn= 4.85D-03
 Coeff-Com:  0.104D-01-0.220D-01 0.155D-01 0.154D+00 0.842D+00
 Coeff-En:   0.000D+00 0.000D+00 0.000D+00 0.000D+00 0.100D+01
 Coeff:      0.104D-01-0.219D-01 0.154D-01 0.153D+00 0.843D+00
 Gap=     0.270 Goal=   None    Shift=    0.000
 RMSDP=1.87D-05 MaxDP=8.20D-04 DE=-5.95D-03 OVMax= 2.56D-03

 Cycle   6  Pass 0  IDiag  1:
 RMSU=  1.49D-05    CP:  9.11D-01  2.00D+00  6.11D-01  7.84D-01  1.09D+00
 E= -2884.26771865483     Delta-E=       -0.000126031111 Rises=F Damp=F
 DIIS: error= 1.59D-04 at cycle   6 NSaved=   6.
 NSaved= 6 IEnMin= 6 EnMin= -2884.26771865483     IErMin= 6 ErrMin= 1.59D-04
 ErrMax= 1.59D-04  0.00D+00 EMaxC= 1.00D-01 BMatC= 2.39D-05 BMatP= 1.21D-04
 IDIUse=3 WtCom= 9.98D-01 WtEn= 1.59D-03
 Coeff-Com:  0.178D-01-0.380D-01-0.180D-01 0.267D-01 0.402D+00 0.610D+00
 Coeff-En:   0.000D+00 0.000D+00 0.000D+00 0.000D+00 0.000D+00 0.100D+01
 Coeff:      0.178D-01-0.380D-01-0.180D-01 0.267D-01 0.401D+00 0.611D+00
 Gap=     0.270 Goal=   None    Shift=    0.000
 RMSDP=1.37D-05 MaxDP=4.28D-04 DE=-1.26D-04 OVMax= 1.01D-03

 Cycle   7  Pass 0  IDiag  1:
 RMSU=  1.16D-05    CP:  9.11D-01  2.00D+00  6.14D-01  7.96D-01  1.26D+00
                    CP:  1.36D+00
 E= -2884.26775075693     Delta-E=       -0.000032102105 Rises=F Damp=F
 DIIS: error= 5.89D-05 at cycle   7 NSaved=   7.
 NSaved= 7 IEnMin= 7 EnMin= -2884.26775075693     IErMin= 7 ErrMin= 5.89D-05
 ErrMax= 5.89D-05  0.00D+00 EMaxC= 1.00D-01 BMatC= 2.92D-06 BMatP= 2.39D-05
 IDIUse=1 WtCom= 1.00D+00 WtEn= 0.00D+00
 Coeff-Com:  0.810D-02-0.173D-01-0.931D-02 0.408D-02 0.147D+00 0.291D+00
 Coeff-Com:  0.577D+00
 Coeff:      0.810D-02-0.173D-01-0.931D-02 0.408D-02 0.147D+00 0.291D+00
 Coeff:      0.577D+00
 Gap=     0.270 Goal=   None    Shift=    0.000
 RMSDP=2.01D-05 MaxDP=7.49D-04 DE=-3.21D-05 OVMax= 2.81D-04

 Cycle   8  Pass 0  IDiag  1:
 RMSU=  1.03D-05    CP:  9.11D-01  2.00D+00  6.14D-01  7.99D-01  1.37D+00
                    CP:  2.11D+00  2.10D+00
 E= -2884.26775993313     Delta-E=       -0.000009176198 Rises=F Damp=F
 DIIS: error= 1.19D-04 at cycle   8 NSaved=   8.
 NSaved= 8 IEnMin= 8 EnMin= -2884.26775993313     IErMin= 7 ErrMin= 5.89D-05
 ErrMax= 1.19D-04  0.00D+00 EMaxC= 1.00D-01 BMatC= 5.95D-06 BMatP= 2.92D-06
 IDIUse=1 WtCom= 1.00D+00 WtEn= 0.00D+00
 Coeff-Com:  0.900D-02-0.192D-01-0.106D-01 0.301D-02 0.156D+00 0.327D+00
 Coeff-Com:  0.773D+00-0.238D+00
 Coeff:      0.900D-02-0.192D-01-0.106D-01 0.301D-02 0.156D+00 0.327D+00
 Coeff:      0.773D+00-0.238D+00
 Gap=     0.270 Goal=   None    Shift=    0.000
 RMSDP=1.34D-05 MaxDP=5.78D-04 DE=-9.18D-06 OVMax= 5.80D-05

 Cycle   9  Pass 0  IDiag  1:
 RMSU=  4.18D-06    CP:  9.11D-01  2.00D+00  6.15D-01  8.02D-01  1.32D+00
                    CP:  1.72D+00  1.35D+00  3.06D-01
 E= -2884.26775287682     Delta-E=        0.000007056315 Rises=F Damp=F
 DIIS: error= 8.66D-05 at cycle   9 NSaved=   9.
 NSaved= 9 IEnMin= 8 EnMin= -2884.26775993313     IErMin= 7 ErrMin= 5.89D-05
 ErrMax= 8.66D-05  0.00D+00 EMaxC= 1.00D-01 BMatC= 3.38D-06 BMatP= 2.92D-06
 IDIUse=1 WtCom= 1.00D+00 WtEn= 0.00D+00
 Coeff-Com:  0.591D-02-0.126D-01-0.736D-02-0.122D-02 0.883D-01 0.218D+00
 Coeff-Com:  0.711D+00-0.645D+00 0.643D+00
 Coeff:      0.591D-02-0.126D-01-0.736D-02-0.122D-02 0.883D-01 0.218D+00
 Coeff:      0.711D+00-0.645D+00 0.643D+00
 Gap=     0.270 Goal=   None    Shift=    0.000
 RMSDP=1.24D-05 MaxDP=6.21D-04 DE= 7.06D-06 OVMax= 8.03D-05

 Cycle  10  Pass 0  IDiag  1:
 RMSU=  1.02D-05    CP:  9.11D-01  2.00D+00  6.16D-01  8.06D-01  1.34D+00
                    CP:  1.71D+00  1.20D+00 -1.21D-01  2.23D+00
 E= -2884.26775004494     Delta-E=        0.000002831874 Rises=F Damp=F
 DIIS: error= 7.56D-05 at cycle  10 NSaved=  10.
 NSaved=10 IEnMin= 8 EnMin= -2884.26775993313     IErMin= 7 ErrMin= 5.89D-05
 ErrMax= 7.56D-05  0.00D+00 EMaxC= 1.00D-01 BMatC= 3.74D-06 BMatP= 2.92D-06
 IDIUse=1 WtCom= 1.00D+00 WtEn= 0.00D+00
 Coeff-Com:  0.546D-02-0.116D-01-0.702D-02-0.277D-02 0.742D-01 0.203D+00
 Coeff-Com:  0.765D+00-0.810D+00 0.107D+01-0.283D+00
 Coeff:      0.546D-02-0.116D-01-0.702D-02-0.277D-02 0.742D-01 0.203D+00
 Coeff:      0.765D+00-0.810D+00 0.107D+01-0.283D+00
 Gap=     0.270 Goal=   None    Shift=    0.000
 RMSDP=6.61D-06 MaxDP=2.67D-04 DE= 2.83D-06 OVMax= 2.71D-05

 Initial convergence to 1.0D-05 achieved.  Increase integral accuracy.
 Cycle  11  Pass 1  IDiag  1:
 E= -2884.26743091763     Delta-E=        0.000319127310 Rises=F Damp=F
 DIIS: error= 5.44D-04 at cycle   1 NSaved=   1.
 NSaved= 1 IEnMin= 1 EnMin= -2884.26743091763     IErMin= 1 ErrMin= 5.44D-04
 ErrMax= 5.44D-04  0.00D+00 EMaxC= 1.00D-01 BMatC= 1.33D-04 BMatP= 1.33D-04
 IDIUse=3 WtCom= 9.95D-01 WtEn= 5.44D-03
 Coeff-Com:  0.100D+01
 Coeff-En:   0.100D+01
 Coeff:      0.100D+01
 Gap=     0.270 Goal=   None    Shift=    0.000
 RMSDP=6.61D-06 MaxDP=2.67D-04 DE= 3.19D-04 OVMax= 1.13D-03

 Cycle  12  Pass 1  IDiag  1:
 RMSU=  2.76D-04    CP:  9.95D-01
 E= -2884.26756120354     Delta-E=       -0.000130285911 Rises=F Damp=F
 DIIS: error= 2.44D-05 at cycle   2 NSaved=   2.
 NSaved= 2 IEnMin= 2 EnMin= -2884.26756120354     IErMin= 2 ErrMin= 2.44D-05
 ErrMax= 2.44D-05  0.00D+00 EMaxC= 1.00D-01 BMatC= 4.10D-07 BMatP= 1.33D-04
 IDIUse=1 WtCom= 1.00D+00 WtEn= 0.00D+00
 Coeff-Com: -0.376D-01 0.104D+01
 Coeff:     -0.376D-01 0.104D+01
 Gap=     0.270 Goal=   None    Shift=    0.000
 RMSDP=1.33D-05 MaxDP=8.01D-04 DE=-1.30D-04 OVMax= 1.56D-04

 Cycle  13  Pass 1  IDiag  1:
 RMSU=  4.26D-06    CP:  9.95D-01  1.05D+00
 E= -2884.26756152104     Delta-E=       -0.000000317499 Rises=F Damp=F
 DIIS: error= 1.55D-05 at cycle   3 NSaved=   3.
 NSaved= 3 IEnMin= 3 EnMin= -2884.26756152104     IErMin= 3 ErrMin= 1.55D-05
 ErrMax= 1.55D-05  0.00D+00 EMaxC= 1.00D-01 BMatC= 2.81D-07 BMatP= 4.10D-07
 IDIUse=1 WtCom= 1.00D+00 WtEn= 0.00D+00
 Coeff-Com: -0.213D-01 0.546D+00 0.475D+00
 Coeff:     -0.213D-01 0.546D+00 0.475D+00
 Gap=     0.270 Goal=   None    Shift=    0.000
 RMSDP=4.79D-07 MaxDP=3.10D-05 DE=-3.17D-07 OVMax= 8.37D-05

 Cycle  14  Pass 1  IDiag  1:
 RMSU=  4.43D-07    CP:  9.95D-01  1.05D+00  1.02D+00
 E= -2884.26756179443     Delta-E=       -0.000000273387 Rises=F Damp=F
 DIIS: error= 4.24D-06 at cycle   4 NSaved=   4.
 NSaved= 4 IEnMin= 4 EnMin= -2884.26756179443     IErMin= 4 ErrMin= 4.24D-06
 ErrMax= 4.24D-06  0.00D+00 EMaxC= 1.00D-01 BMatC= 9.88D-09 BMatP= 2.81D-07
 IDIUse=1 WtCom= 1.00D+00 WtEn= 0.00D+00
 Coeff-Com: -0.696D-03 0.649D-02 0.137D+00 0.858D+00
 Coeff:     -0.696D-03 0.649D-02 0.137D+00 0.858D+00
 Gap=     0.270 Goal=   None    Shift=    0.000
 RMSDP=2.80D-07 MaxDP=1.39D-05 DE=-2.73D-07 OVMax= 2.87D-05

 Cycle  15  Pass 1  IDiag  1:
 RMSU=  1.42D-07    CP:  9.95D-01  1.05D+00  1.06D+00  9.49D-01
 E= -2884.26756180647     Delta-E=       -0.000000012036 Rises=F Damp=F
 DIIS: error= 1.58D-06 at cycle   5 NSaved=   5.
 NSaved= 5 IEnMin= 5 EnMin= -2884.26756180647     IErMin= 5 ErrMin= 1.58D-06
 ErrMax= 1.58D-06  0.00D+00 EMaxC= 1.00D-01 BMatC= 2.31D-09 BMatP= 9.88D-09
 IDIUse=1 WtCom= 1.00D+00 WtEn= 0.00D+00
 Coeff-Com:  0.149D-02-0.436D-01 0.216D-01 0.415D+00 0.606D+00
 Coeff:      0.149D-02-0.436D-01 0.216D-01 0.415D+00 0.606D+00
 Gap=     0.270 Goal=   None    Shift=    0.000
 RMSDP=5.18D-08 MaxDP=6.99D-06 DE=-1.20D-08 OVMax= 1.17D-05

 Cycle  16  Pass 1  IDiag  1:
 RMSU=  3.67D-08    CP:  9.95D-01  1.05D+00  1.07D+00  9.85D-01  1.05D+00
 E= -2884.26756180876     Delta-E=       -0.000000002290 Rises=F Damp=F
 DIIS: error= 7.16D-07 at cycle   6 NSaved=   6.
 NSaved= 6 IEnMin= 6 EnMin= -2884.26756180876     IErMin= 6 ErrMin= 7.16D-07
 ErrMax= 7.16D-07  0.00D+00 EMaxC= 1.00D-01 BMatC= 1.41D-10 BMatP= 2.31D-09
 IDIUse=1 WtCom= 1.00D+00 WtEn= 0.00D+00
 Coeff-Com:  0.357D-03-0.898D-02-0.127D-01-0.874D-02 0.139D+00 0.891D+00
 Coeff:      0.357D-03-0.898D-02-0.127D-01-0.874D-02 0.139D+00 0.891D+00
 Gap=     0.270 Goal=   None    Shift=    0.000
 RMSDP=1.85D-08 MaxDP=9.48D-07 DE=-2.29D-09 OVMax= 6.63D-06

 Cycle  17  Pass 1  IDiag  1:
 RMSU=  1.52D-08    CP:  9.95D-01  1.05D+00  1.07D+00  9.87D-01  1.12D+00
                    CP:  1.01D+00
 E= -2884.26756180979     Delta-E=       -0.000000001037 Rises=F Damp=F
 DIIS: error= 3.75D-07 at cycle   7 NSaved=   7.
 NSaved= 7 IEnMin= 7 EnMin= -2884.26756180979     IErMin= 7 ErrMin= 3.75D-07
 ErrMax= 3.75D-07  0.00D+00 EMaxC= 1.00D-01 BMatC= 6.66D-11 BMatP= 1.41D-10
 IDIUse=1 WtCom= 1.00D+00 WtEn= 0.00D+00
 Coeff-Com: -0.176D-03 0.601D-02-0.141D-01-0.114D+00-0.725D-01 0.502D+00
 Coeff-Com:  0.693D+00
 Coeff:     -0.176D-03 0.601D-02-0.141D-01-0.114D+00-0.725D-01 0.502D+00
 Coeff:      0.693D+00
 Gap=     0.270 Goal=   None    Shift=    0.000
 RMSDP=9.89D-09 MaxDP=5.71D-07 DE=-1.04D-09 OVMax= 3.04D-06

 SCF Done:  E(RwB97XD) =  -2884.26756181     A.U. after   17 cycles
            NFock= 17  Conv=0.99D-08     -V/T= 2.0041
 KE= 2.872604801499D+03 PE=-2.679905112002D+04 EE= 1.099040156813D+04
 Leave Link  502 at Tue Jun 15 16:48:26 2021, MaxMem=  7864320000 cpu:            7106.9 elap:            7107.1
 (Enter /sw/linux/gaussian/g16/g16/l601.exe)
 Copying SCF densities to generalized density rwf, IOpCl= 0 IROHF=0.
 Hyperfine terms turned off by default for NAtoms > 100.

 **********************************************************************

            Population analysis using the SCF Density.

 **********************************************************************

 Alpha  occ. eigenvalues --  -10.31713 -10.31693 -10.31690 -10.29902 -10.29902
 Alpha  occ. eigenvalues --  -10.29872 -10.29872 -10.29521 -10.29521 -10.29520
 Alpha  occ. eigenvalues --  -10.29509 -10.29505 -10.29504 -10.29502 -10.29502
 Alpha  occ. eigenvalues --  -10.29495 -10.29494 -10.29479 -10.29478 -10.29463
 Alpha  occ. eigenvalues --  -10.29461 -10.29461 -10.29447 -10.29444 -10.29443
 Alpha  occ. eigenvalues --  -10.29431 -10.29418 -10.29418 -10.29402 -10.29392
 Alpha  occ. eigenvalues --  -10.29391 -10.29013 -10.29012 -10.29008 -10.29007
 Alpha  occ. eigenvalues --  -10.29004 -10.29003 -10.28992 -10.28991 -10.28959
 Alpha  occ. eigenvalues --  -10.28958 -10.28954 -10.28954 -10.28866 -10.28865
 Alpha  occ. eigenvalues --  -10.28841 -10.28839 -10.28826 -10.28826 -10.28817
 Alpha  occ. eigenvalues --  -10.28816 -10.28799 -10.28798 -10.28794 -10.28794
 Alpha  occ. eigenvalues --  -10.28780 -10.28779 -10.28762 -10.28762 -10.28754
 Alpha  occ. eigenvalues --  -10.28753 -10.28753 -10.28753 -10.28751 -10.28751
 Alpha  occ. eigenvalues --  -10.28734 -10.28734 -10.28733 -10.28733 -10.28728
 Alpha  occ. eigenvalues --  -10.28727 -10.28711 -10.28711 -10.28687 -10.28687
 Alpha  occ. eigenvalues --   -1.01655  -1.01561  -1.01515  -0.98678  -0.98489
 Alpha  occ. eigenvalues --   -0.98287  -0.96811  -0.95841  -0.95368  -0.95356
 Alpha  occ. eigenvalues --   -0.95356  -0.94814  -0.92698  -0.91793  -0.91472
 Alpha  occ. eigenvalues --   -0.90188  -0.89424  -0.88608  -0.87807  -0.87670
 Alpha  occ. eigenvalues --   -0.86888  -0.85313  -0.85251  -0.85094  -0.85065
 Alpha  occ. eigenvalues --   -0.84833  -0.84798  -0.84787  -0.84773  -0.84773
 Alpha  occ. eigenvalues --   -0.83938  -0.81855  -0.81844  -0.81843  -0.81821
 Alpha  occ. eigenvalues --   -0.79561  -0.78851  -0.78560  -0.78359  -0.74813
 Alpha  occ. eigenvalues --   -0.74154  -0.74085  -0.73583  -0.73050  -0.72681
 Alpha  occ. eigenvalues --   -0.71095  -0.70721  -0.69561  -0.69356  -0.68394
 Alpha  occ. eigenvalues --   -0.68251  -0.68239  -0.68238  -0.68121  -0.67540
 Alpha  occ. eigenvalues --   -0.67369  -0.67358  -0.67357  -0.67154  -0.66830
 Alpha  occ. eigenvalues --   -0.66562  -0.65822  -0.64941  -0.62355  -0.62196
 Alpha  occ. eigenvalues --   -0.61874  -0.60191  -0.59977  -0.59842  -0.59771
 Alpha  occ. eigenvalues --   -0.58897  -0.58885  -0.58883  -0.58294  -0.57728
 Alpha  occ. eigenvalues --   -0.57618  -0.57288  -0.56541  -0.56363  -0.55824
 Alpha  occ. eigenvalues --   -0.55142  -0.54403  -0.54161  -0.54121  -0.53729
 Alpha  occ. eigenvalues --   -0.53322  -0.53320  -0.53291  -0.53258  -0.53110
 Alpha  occ. eigenvalues --   -0.53059  -0.52835  -0.52605  -0.52430  -0.52397
 Alpha  occ. eigenvalues --   -0.52392  -0.52357  -0.52270  -0.52200  -0.51370
 Alpha  occ. eigenvalues --   -0.50970  -0.50942  -0.50895  -0.50876  -0.50845
 Alpha  occ. eigenvalues --   -0.50672  -0.50662  -0.50557  -0.50240  -0.49169
 Alpha  occ. eigenvalues --   -0.49059  -0.48492  -0.48277  -0.47709  -0.47646
 Alpha  occ. eigenvalues --   -0.47502  -0.47346  -0.47258  -0.46407  -0.46106
 Alpha  occ. eigenvalues --   -0.45866  -0.45799  -0.45630  -0.45424  -0.45139
 Alpha  occ. eigenvalues --   -0.44890  -0.44739  -0.44571  -0.44032  -0.43835
 Alpha  occ. eigenvalues --   -0.43707  -0.43696  -0.43249  -0.43218  -0.42865
 Alpha  occ. eigenvalues --   -0.42748  -0.42441  -0.42287  -0.42128  -0.42008
 Alpha  occ. eigenvalues --   -0.41969  -0.41952  -0.41947  -0.41828  -0.41471
 Alpha  occ. eigenvalues --   -0.40716  -0.40565  -0.40426  -0.38517  -0.37043
 Alpha  occ. eigenvalues --   -0.36774  -0.36756  -0.36749  -0.35114  -0.34887
 Alpha  occ. eigenvalues --   -0.34826  -0.34768  -0.32645  -0.32619  -0.32596
 Alpha  occ. eigenvalues --   -0.32589  -0.32580  -0.32538  -0.32250  -0.31893
 Alpha  occ. eigenvalues --   -0.31844  -0.30775  -0.29422  -0.29172  -0.28905
 Alpha  occ. eigenvalues --   -0.28332  -0.26693
 Alpha virt. eigenvalues --    0.00336   0.02287   0.02660   0.02671   0.02671
 Alpha virt. eigenvalues --    0.04188   0.04535   0.04539   0.04569   0.04608
 Alpha virt. eigenvalues --    0.04625   0.04939   0.06190   0.06229   0.06295
 Alpha virt. eigenvalues --    0.07775   0.07845   0.07866   0.08997   0.10350
 Alpha virt. eigenvalues --    0.10559   0.10948   0.11712   0.12314   0.12405
 Alpha virt. eigenvalues --    0.12541   0.12856   0.13011   0.13190   0.13496
 Alpha virt. eigenvalues --    0.13529   0.13585   0.13625   0.14089   0.14162
 Alpha virt. eigenvalues --    0.14690   0.15036   0.15151   0.15196   0.15438
 Alpha virt. eigenvalues --    0.16309   0.16460   0.16988   0.17125   0.17158
 Alpha virt. eigenvalues --    0.17261   0.17292   0.17669   0.17888   0.17944
 Alpha virt. eigenvalues --    0.18535   0.19031   0.19127   0.19451   0.19494
 Alpha virt. eigenvalues --    0.19600   0.19618   0.19824   0.19983   0.20063
 Alpha virt. eigenvalues --    0.20108   0.20388   0.20560   0.20887   0.21051
 Alpha virt. eigenvalues --    0.21500   0.21927   0.21949   0.23939   0.23969
 Alpha virt. eigenvalues --    0.23976   0.24400   0.24666   0.25091   0.25229
 Alpha virt. eigenvalues --    0.26141   0.26329   0.26543   0.26633   0.26783
 Alpha virt. eigenvalues --    0.27895   0.28143   0.28354   0.28843   0.28894
 Alpha virt. eigenvalues --    0.28926   0.29255   0.29741   0.29884   0.30264
 Alpha virt. eigenvalues --    0.30345   0.30396   0.30575   0.30757   0.30857
 Alpha virt. eigenvalues --    0.31470   0.31493   0.31646   0.32877   0.33204
 Alpha virt. eigenvalues --    0.33566   0.33727   0.33866   0.33893   0.33943
 Alpha virt. eigenvalues --    0.34193   0.34259   0.34384   0.34625   0.34947
 Alpha virt. eigenvalues --    0.35247   0.35345   0.35388   0.35836   0.35856
 Alpha virt. eigenvalues --    0.36007   0.36025   0.36054   0.36296   0.36698
 Alpha virt. eigenvalues --    0.36732   0.37092   0.37248   0.37549   0.37618
 Alpha virt. eigenvalues --    0.37893   0.37916   0.37921   0.38170   0.38276
 Alpha virt. eigenvalues --    0.38498   0.39121   0.40599   0.41283   0.41329
 Alpha virt. eigenvalues --    0.41345   0.41384   0.41557   0.42259   0.42981
 Alpha virt. eigenvalues --    0.43226   0.43347   0.43364   0.43931   0.44097
 Alpha virt. eigenvalues --    0.44257   0.44289   0.44371   0.44529   0.44648
 Alpha virt. eigenvalues --    0.44722   0.45187   0.45333   0.45469   0.45589
 Alpha virt. eigenvalues --    0.45813   0.45958   0.46090   0.46262   0.46302
 Alpha virt. eigenvalues --    0.46349   0.46515   0.46702   0.47010   0.47056
 Alpha virt. eigenvalues --    0.47211   0.47273   0.47451   0.47475   0.47616
 Alpha virt. eigenvalues --    0.47771   0.47853   0.47883   0.48270   0.48293
 Alpha virt. eigenvalues --    0.48316   0.48356   0.48424   0.48490   0.48622
 Alpha virt. eigenvalues --    0.48772   0.48911   0.49073   0.49322   0.49454
 Alpha virt. eigenvalues --    0.49523   0.49868   0.49931   0.50151   0.50279
 Alpha virt. eigenvalues --    0.50416   0.50639   0.50741   0.50993   0.51097
 Alpha virt. eigenvalues --    0.51136   0.51184   0.51191   0.51403   0.51450
 Alpha virt. eigenvalues --    0.51533   0.51670   0.51792   0.51808   0.52028
 Alpha virt. eigenvalues --    0.52171   0.52329   0.52932   0.52942   0.52980
 Alpha virt. eigenvalues --    0.52999   0.53251   0.53373   0.53985   0.54101
 Alpha virt. eigenvalues --    0.54178   0.54296   0.54380   0.54397   0.54522
 Alpha virt. eigenvalues --    0.54790   0.54868   0.55007   0.55037   0.55123
 Alpha virt. eigenvalues --    0.55366   0.55853   0.55985   0.56050   0.56255
 Alpha virt. eigenvalues --    0.56303   0.56407   0.56490   0.56715   0.56754
 Alpha virt. eigenvalues --    0.56826   0.56901   0.57038   0.57060   0.57738
 Alpha virt. eigenvalues --    0.57964   0.58014   0.58785   0.59053   0.59204
 Alpha virt. eigenvalues --    0.59361   0.59461   0.59508   0.59655   0.59778
 Alpha virt. eigenvalues --    0.60103   0.60165   0.60684   0.60685   0.60987
 Alpha virt. eigenvalues --    0.61206   0.61232   0.61481   0.62078   0.62650
 Alpha virt. eigenvalues --    0.63156   0.63290   0.63379   0.63463   0.63563
 Alpha virt. eigenvalues --    0.63647   0.63836   0.64294   0.64431   0.64533
 Alpha virt. eigenvalues --    0.64557   0.64910   0.65041   0.65357   0.65366
 Alpha virt. eigenvalues --    0.65446   0.65453   0.65637   0.65801   0.66092
 Alpha virt. eigenvalues --    0.66124   0.66369   0.66657   0.66960   0.67396
 Alpha virt. eigenvalues --    0.67617   0.67622   0.67715   0.67955   0.68057
 Alpha virt. eigenvalues --    0.68070   0.68502   0.68633   0.68956   0.69235
 Alpha virt. eigenvalues --    0.69291   0.69315   0.69363   0.69658   0.69666
 Alpha virt. eigenvalues --    0.70048   0.70122   0.70203   0.70243   0.70294
 Alpha virt. eigenvalues --    0.70326   0.70427   0.70437   0.70495   0.70598
 Alpha virt. eigenvalues --    0.70640   0.70838   0.70965   0.71179   0.71444
 Alpha virt. eigenvalues --    0.71495   0.71565   0.71641   0.71700   0.72035
 Alpha virt. eigenvalues --    0.72194   0.72395   0.72419   0.72562   0.72651
 Alpha virt. eigenvalues --    0.72709   0.72907   0.72948   0.73036   0.73196
 Alpha virt. eigenvalues --    0.73304   0.73508   0.73584   0.73915   0.74585
 Alpha virt. eigenvalues --    0.74862   0.75007   0.75665   0.76572   0.76716
 Alpha virt. eigenvalues --    0.76830   0.77328   0.77475   0.77555   0.77589
 Alpha virt. eigenvalues --    0.77646   0.77754   0.78063   0.78842   0.79010
 Alpha virt. eigenvalues --    0.80350   0.80363   0.80660   0.80961   0.81355
 Alpha virt. eigenvalues --    0.81452   0.81550   0.81572   0.81992   0.82044
 Alpha virt. eigenvalues --    0.82053   0.82819   0.82859   0.82990   0.83000
 Alpha virt. eigenvalues --    0.83289   0.83335   0.83728   0.83934   0.84142
 Alpha virt. eigenvalues --    0.84553   0.84878   0.84922   0.85062   0.85440
 Alpha virt. eigenvalues --    0.85529   0.85645   0.86348   0.86596   0.86761
 Alpha virt. eigenvalues --    0.86880   0.86910   0.87162   0.87174   0.87334
 Alpha virt. eigenvalues --    0.87463   0.87881   0.88106   0.88534   0.88780
 Alpha virt. eigenvalues --    0.88965   0.89419   0.89804   0.89837   0.90146
 Alpha virt. eigenvalues --    0.90550   0.90582   0.90705   0.90987   0.91042
 Alpha virt. eigenvalues --    0.91238   0.91330   0.91659   0.92281   0.92474
 Alpha virt. eigenvalues --    0.92563   0.92620   0.92735   0.93007   0.93133
 Alpha virt. eigenvalues --    0.93991   0.94187   0.94677   0.95184   0.95404
 Alpha virt. eigenvalues --    0.95491   0.95584   0.95709   0.96409   0.96456
 Alpha virt. eigenvalues --    0.96587   0.96601   0.96820   0.96940   0.97233
 Alpha virt. eigenvalues --    0.97275   0.97462   0.97524   0.97683   0.98054
 Alpha virt. eigenvalues --    0.98166   0.98529   0.98796   0.99556   0.99571
 Alpha virt. eigenvalues --    0.99783   0.99927   1.00425   1.01591   1.01937
 Alpha virt. eigenvalues --    1.02247   1.02721   1.03296   1.03695   1.03781
 Alpha virt. eigenvalues --    1.04990   1.05071   1.05092   1.05182   1.05193
 Alpha virt. eigenvalues --    1.05350   1.05409   1.05667   1.05900   1.07073
 Alpha virt. eigenvalues --    1.07311   1.08364   1.08426   1.08849   1.08866
 Alpha virt. eigenvalues --    1.08941   1.08998   1.09329   1.09580   1.09621
 Alpha virt. eigenvalues --    1.09750   1.10772   1.10871   1.11001   1.11009
 Alpha virt. eigenvalues --    1.11109   1.11150   1.11210   1.11317   1.11597
 Alpha virt. eigenvalues --    1.11847   1.12267   1.12475   1.12488   1.12692
 Alpha virt. eigenvalues --    1.12779   1.12847   1.12848   1.13379   1.13807
 Alpha virt. eigenvalues --    1.14191   1.14275   1.14342   1.14582   1.14700
 Alpha virt. eigenvalues --    1.15169   1.15321   1.15328   1.15730   1.15786
 Alpha virt. eigenvalues --    1.15808   1.16389   1.16488   1.17096   1.17443
 Alpha virt. eigenvalues --    1.17564   1.17599   1.17717   1.17791   1.18100
 Alpha virt. eigenvalues --    1.18104   1.18311   1.18415   1.18432   1.18611
 Alpha virt. eigenvalues --    1.18745   1.18989   1.19048   1.19255   1.19401
 Alpha virt. eigenvalues --    1.19852   1.19951   1.20481   1.20738   1.21207
 Alpha virt. eigenvalues --    1.21607   1.22014   1.23858   1.23942   1.24258
 Alpha virt. eigenvalues --    1.24333   1.24340   1.24462   1.24639   1.25420
 Alpha virt. eigenvalues --    1.25806   1.25854   1.25971   1.27120   1.27254
 Alpha virt. eigenvalues --    1.27860   1.28493   1.28630   1.29069   1.29564
 Alpha virt. eigenvalues --    1.29603   1.30149   1.30715   1.30777   1.31582
 Alpha virt. eigenvalues --    1.31682   1.32424   1.32740   1.32785   1.33213
 Alpha virt. eigenvalues --    1.33343   1.33786   1.36204   1.36460   1.36622
 Alpha virt. eigenvalues --    1.36845   1.36894   1.37131   1.37198   1.37791
 Alpha virt. eigenvalues --    1.38082   1.39028   1.39053   1.39233   1.40200
 Alpha virt. eigenvalues --    1.40487   1.40642   1.40848   1.41054   1.41598
 Alpha virt. eigenvalues --    1.42283   1.43209   1.44102   1.46666   1.47431
 Alpha virt. eigenvalues --    1.48797   1.49028   1.50241   1.50482   1.50712
 Alpha virt. eigenvalues --    1.50995   1.51280   1.51386   1.51467   1.51550
 Alpha virt. eigenvalues --    1.51663   1.52026   1.52068   1.52617   1.52758
 Alpha virt. eigenvalues --    1.53211   1.53478   1.53572   1.53669   1.53755
 Alpha virt. eigenvalues --    1.53873   1.53996   1.54126   1.54592   1.54887
 Alpha virt. eigenvalues --    1.55141   1.55601   1.55719   1.55933   1.56065
 Alpha virt. eigenvalues --    1.56075   1.56180   1.56317   1.56406   1.56439
 Alpha virt. eigenvalues --    1.56572   1.56611   1.57094   1.57298   1.57603
 Alpha virt. eigenvalues --    1.58070   1.58278   1.58305   1.58379   1.58464
 Alpha virt. eigenvalues --    1.59296   1.59622   1.60586   1.60616   1.61302
 Alpha virt. eigenvalues --    1.61433   1.61753   1.61867   1.62068   1.62999
 Alpha virt. eigenvalues --    1.63192   1.63222   1.63389   1.63691   1.63725
 Alpha virt. eigenvalues --    1.63785   1.64063   1.64166   1.64258   1.64429
 Alpha virt. eigenvalues --    1.64553   1.64762   1.65052   1.65075   1.65172
 Alpha virt. eigenvalues --    1.65301   1.65408   1.65836   1.66003   1.66332
 Alpha virt. eigenvalues --    1.66603   1.66636   1.66758   1.66848   1.67002
 Alpha virt. eigenvalues --    1.67160   1.67812   1.67890   1.68400   1.68647
 Alpha virt. eigenvalues --    1.69354   1.69508   1.69859   1.70431   1.70587
 Alpha virt. eigenvalues --    1.71306   1.71520   1.71938   1.72091   1.72337
 Alpha virt. eigenvalues --    1.72517   1.72705   1.73814   1.73848   1.74535
 Alpha virt. eigenvalues --    1.74667   1.75270   1.75318   1.75491   1.75622
 Alpha virt. eigenvalues --    1.75891   1.75946   1.76113   1.76323   1.77070
 Alpha virt. eigenvalues --    1.77120   1.77133   1.77300   1.77335   1.77451
 Alpha virt. eigenvalues --    1.77768   1.77917   1.78258   1.78637   1.78812
 Alpha virt. eigenvalues --    1.79070   1.79442   1.79583   1.80029   1.80176
 Alpha virt. eigenvalues --    1.80409   1.80667   1.80685   1.80992   1.81034
 Alpha virt. eigenvalues --    1.81269   1.81415   1.81661   1.81985   1.82092
 Alpha virt. eigenvalues --    1.82115   1.82413   1.82912   1.83069   1.83341
 Alpha virt. eigenvalues --    1.83634   1.83784   1.83892   1.84403   1.84549
 Alpha virt. eigenvalues --    1.84611   1.84699   1.84756   1.84765   1.84941
 Alpha virt. eigenvalues --    1.85134   1.85541   1.85646   1.86878   1.87491
 Alpha virt. eigenvalues --    1.88210   1.88622   1.88849   1.88980   1.89153
 Alpha virt. eigenvalues --    1.89325   1.89595   1.89672   1.89884   1.89936
 Alpha virt. eigenvalues --    1.90204   1.90860   1.91005   1.91086   1.91236
 Alpha virt. eigenvalues --    1.92178   1.92187   1.92451   1.92788   1.92825
 Alpha virt. eigenvalues --    1.92999   1.93047   1.93120   1.93284   1.94540
 Alpha virt. eigenvalues --    1.94785   1.94967   1.95474   1.95733   1.95764
 Alpha virt. eigenvalues --    1.95930   1.96210   1.96756   1.97229   1.97329
 Alpha virt. eigenvalues --    1.97331   1.97723   1.97793   1.97970   1.98393
 Alpha virt. eigenvalues --    1.98791   1.98947   1.98965   1.99335   1.99502
 Alpha virt. eigenvalues --    2.00285   2.00467   2.00541   2.00738   2.00808
 Alpha virt. eigenvalues --    2.01112   2.01116   2.01132   2.01162   2.01290
 Alpha virt. eigenvalues --    2.01411   2.01438   2.01547   2.01818   2.01983
 Alpha virt. eigenvalues --    2.02002   2.02070   2.02243   2.02589   2.02689
 Alpha virt. eigenvalues --    2.03163   2.03803   2.03821   2.03875   2.04192
 Alpha virt. eigenvalues --    2.04365   2.04592   2.04678   2.04925   2.05152
 Alpha virt. eigenvalues --    2.05320   2.05567   2.05787   2.05940   2.06013
 Alpha virt. eigenvalues --    2.06474   2.06607   2.07408   2.07907   2.07990
 Alpha virt. eigenvalues --    2.08112   2.08744   2.08991   2.09016   2.09382
 Alpha virt. eigenvalues --    2.09514   2.09652   2.10022   2.10045   2.10703
 Alpha virt. eigenvalues --    2.10882   2.11219   2.11874   2.11981   2.12578
 Alpha virt. eigenvalues --    2.13553   2.13773   2.14253   2.14405   2.14408
 Alpha virt. eigenvalues --    2.14903   2.15064   2.15689   2.15738   2.16511
 Alpha virt. eigenvalues --    2.17120   2.17135   2.17601   2.17778   2.18829
 Alpha virt. eigenvalues --    2.19115   2.19529   2.20251   2.20356   2.21014
 Alpha virt. eigenvalues --    2.21017   2.21018   2.21468   2.21481   2.21533
 Alpha virt. eigenvalues --    2.21794   2.21964   2.24336   2.24890   2.25267
 Alpha virt. eigenvalues --    2.25456   2.25827   2.26376   2.27171   2.28106
 Alpha virt. eigenvalues --    2.28404   2.28688   2.28725   2.28854   2.29343
 Alpha virt. eigenvalues --    2.29395   2.29667   2.29854   2.31540   2.32205
 Alpha virt. eigenvalues --    2.32705   2.32757   2.33334   2.34013   2.34032
 Alpha virt. eigenvalues --    2.34092   2.34969   2.35293   2.35388   2.35515
 Alpha virt. eigenvalues --    2.35631   2.35921   2.36107   2.37807   2.38279
 Alpha virt. eigenvalues --    2.38328   2.40159   2.40765   2.40785   2.40792
 Alpha virt. eigenvalues --    2.41275   2.41582   2.41860   2.42012   2.42418
 Alpha virt. eigenvalues --    2.42836   2.43175   2.43223   2.44318   2.44759
 Alpha virt. eigenvalues --    2.45198   2.45491   2.46448   2.46823   2.47786
 Alpha virt. eigenvalues --    2.47951   2.48003   2.48021   2.48525   2.48927
 Alpha virt. eigenvalues --    2.49036   2.49860   2.50210   2.50914   2.50929
 Alpha virt. eigenvalues --    2.51046   2.51253   2.51316   2.51470   2.51548
 Alpha virt. eigenvalues --    2.52256   2.52272   2.52928   2.53047   2.53050
 Alpha virt. eigenvalues --    2.53435   2.53498   2.53525   2.53742   2.54106
 Alpha virt. eigenvalues --    2.54457   2.54681   2.54760   2.56022   2.56541
 Alpha virt. eigenvalues --    2.57939   2.59147   2.59311   2.59396   2.60897
 Alpha virt. eigenvalues --    2.64800   2.65629   2.65636   2.65665   2.65726
 Alpha virt. eigenvalues --    2.66170   2.67801   2.67916   2.68137   2.68239
 Alpha virt. eigenvalues --    2.68702   2.69683   2.69703   2.69764   2.69946
 Alpha virt. eigenvalues --    2.69987   2.70027   2.70100   2.70125   2.70186
 Alpha virt. eigenvalues --    2.70381   2.70446   2.70635   2.70756   2.70780
 Alpha virt. eigenvalues --    2.70874   2.70958   2.71005   2.71015   2.71050
 Alpha virt. eigenvalues --    2.71146   2.71214   2.71562   2.71664   2.71721
 Alpha virt. eigenvalues --    2.71862   2.72137   2.72411   2.72648   2.73080
 Alpha virt. eigenvalues --    2.73105   2.73159   2.73387   2.73396   2.74084
 Alpha virt. eigenvalues --    2.74145   2.74229   2.74265   2.74422   2.74783
 Alpha virt. eigenvalues --    2.74839   2.74973   2.74993   2.75009   2.75715
 Alpha virt. eigenvalues --    2.76067   2.76904   2.77182   2.77344   2.77685
 Alpha virt. eigenvalues --    2.77809   2.77874   2.77876   2.78149   2.78460
 Alpha virt. eigenvalues --    2.78483   2.78913   2.79016   2.79526   2.79605
 Alpha virt. eigenvalues --    2.79616   2.79625   2.79640   2.79678   2.79700
 Alpha virt. eigenvalues --    2.80243   2.80505   2.80849   2.80965   2.81079
 Alpha virt. eigenvalues --    2.81476   2.81908   2.82399   2.82620   2.82956
 Alpha virt. eigenvalues --    2.83735   2.83755   2.83814   2.83818   2.83957
 Alpha virt. eigenvalues --    2.85548   2.85561   2.85902   2.86121   2.86786
 Alpha virt. eigenvalues --    2.87233   2.87820   2.88042   2.88832   2.89128
 Alpha virt. eigenvalues --    2.89298   2.89798   2.89873   2.90002   2.90094
 Alpha virt. eigenvalues --    2.90372   2.90407   2.90648   2.91003   2.91499
 Alpha virt. eigenvalues --    2.91701   2.91937   2.92155   2.92304   2.92599
 Alpha virt. eigenvalues --    2.92828   2.93227   2.93821   2.94004   2.94475
 Alpha virt. eigenvalues --    2.95207   2.95208   2.95421   2.95480   2.95787
 Alpha virt. eigenvalues --    2.95826   2.96119   2.96593   2.97276   2.97289
 Alpha virt. eigenvalues --    2.97549   2.97828   2.97941   2.98069   2.98155
 Alpha virt. eigenvalues --    2.98494   2.98525   2.98972   3.00566   3.00645
 Alpha virt. eigenvalues --    3.01116   3.01237   3.02901   3.03180   3.03371
 Alpha virt. eigenvalues --    3.04791   3.05238   3.05273   3.05955   3.07143
 Alpha virt. eigenvalues --    3.07200   3.07343   3.07560   3.07609   3.07698
 Alpha virt. eigenvalues --    3.07960   3.08110   3.08595   3.08816   3.09853
 Alpha virt. eigenvalues --    3.10391   3.11057   3.11104   3.11162   3.11255
 Alpha virt. eigenvalues --    3.11525   3.14450   3.14465   3.14711   3.14921
 Alpha virt. eigenvalues --    3.20443   3.20474   3.20583   3.20672   3.21005
 Alpha virt. eigenvalues --    3.21105   3.21445   3.21797   3.22477   3.24560
 Alpha virt. eigenvalues --    3.25360   3.25553   3.26612   3.26717   3.26896
 Alpha virt. eigenvalues --    3.27405   3.27942   3.29110   3.29641   3.29835
 Alpha virt. eigenvalues --    3.30240   3.30369   3.30449   3.30796   3.31137
 Alpha virt. eigenvalues --    3.31137   3.31890   3.32582   3.32813   3.34228
 Alpha virt. eigenvalues --    3.35099   3.35581   3.36518   3.36542   3.36597
 Alpha virt. eigenvalues --    3.37940   3.38505   3.39607   3.43529   3.43888
 Alpha virt. eigenvalues --    3.43995   3.44424   3.44871   3.45692   3.46417
 Alpha virt. eigenvalues --    3.46675   3.46876   3.47240   3.47354   3.48195
 Alpha virt. eigenvalues --    3.50247   3.50259   3.50312   3.50450   3.50538
 Alpha virt. eigenvalues --    3.51336   3.51472   3.52020   3.52166   3.52297
 Alpha virt. eigenvalues --    3.52313   3.52328   3.53478   3.53481   3.53937
 Alpha virt. eigenvalues --    3.54263   3.54360   3.54671   3.56720   3.56727
 Alpha virt. eigenvalues --    3.57082   3.58315   3.58318   3.58845   3.58846
 Alpha virt. eigenvalues --    3.58865   3.62667   3.62955   3.63549   3.65858
 Alpha virt. eigenvalues --    3.66562   3.66571   3.67473   3.67925   3.67944
 Alpha virt. eigenvalues --    3.68002   3.68083   3.68188   3.71692   3.71909
 Alpha virt. eigenvalues --    3.73555   3.73834   3.74113   3.74121   3.74196
 Alpha virt. eigenvalues --    3.74789   3.75773   3.76520   3.77549   3.78167
 Alpha virt. eigenvalues --    3.79065   3.79492   3.79494   3.79529   3.79700
 Alpha virt. eigenvalues --    3.81883   3.83087   3.86293   3.86818   3.87691
 Alpha virt. eigenvalues --    3.94161   3.94467   3.95453   4.02470   4.02482
 Alpha virt. eigenvalues --    4.02807   4.12209   4.12215   4.12216   4.12547
 Alpha virt. eigenvalues --    4.12548   4.12866   4.12866   4.12888   4.13158
 Alpha virt. eigenvalues --    4.13171   4.13184   4.14041   4.14116   4.15502
 Alpha virt. eigenvalues --    4.15995   4.16906   4.17029   4.18005   4.18208
 Alpha virt. eigenvalues --    4.18756   4.24577   4.24869   4.24916   4.25612
 Alpha virt. eigenvalues --    4.25654   4.26853   4.31704   4.31705   4.31735
 Alpha virt. eigenvalues --    4.32564   4.32684   4.33434   4.42887   4.45825
 Alpha virt. eigenvalues --    4.49784   4.49790   4.49841   4.50154   4.50213
 Alpha virt. eigenvalues --    4.50761   4.50814   4.63222   4.64854   4.71481
 Alpha virt. eigenvalues --    4.71590   4.71596   4.71686   4.75578   4.86863
 Alpha virt. eigenvalues --    4.92992   4.93307   4.93360   4.93481   4.93703
 Alpha virt. eigenvalues --    4.94692   4.97064   4.97404   4.97413   4.97414
 Alpha virt. eigenvalues --    4.98174   4.99259  23.52545  23.55618  23.58424
 Alpha virt. eigenvalues --   23.62804  23.64349  23.68596  23.73479  23.74933
 Alpha virt. eigenvalues --   23.74938  23.74972  23.76988  23.78974  24.00238
 Alpha virt. eigenvalues --   24.00274  24.00469  24.03529  24.04286  24.04988
 Alpha virt. eigenvalues --   24.05350  24.05525  24.05640  24.05643  24.05658
 Alpha virt. eigenvalues --   24.06545  24.06567  24.06592  24.06836  24.07193
 Alpha virt. eigenvalues --   24.07895  24.07901  24.07903  24.08002  24.08709
 Alpha virt. eigenvalues --   24.09304  24.09679  24.09779  24.12747  24.12911
 Alpha virt. eigenvalues --   24.13185  24.19498  24.19737  24.22369  24.22414
 Alpha virt. eigenvalues --   24.22829  24.22834  24.22836  24.22868  24.22870
 Alpha virt. eigenvalues --   24.23120  24.23330  24.23331  24.24701  24.24709
 Alpha virt. eigenvalues --   24.24711  24.24846  24.24855  24.25761  24.26882
 Alpha virt. eigenvalues --   24.27054  24.27344  24.27718  24.27785  24.28047
 Alpha virt. eigenvalues --   24.32956  24.33166  24.33941  24.33945  24.33992
 Alpha virt. eigenvalues --   24.34010  24.34011  24.34117  24.34234  24.34700
 Alpha virt. eigenvalues --   24.34712  24.34882
          Condensed to atoms (all electrons):
 Mulliken charges:
               1
     1  C   -0.048363
     2  C   -0.021186
     3  H    0.114302
     4  C    0.074767
     5  C   -0.054823
     6  C   -0.045845
     7  H    0.096246
     8  C   -0.092408
     9  H    0.116240
    10  C   -0.538008
    11  C   -0.065002
    12  C    0.084569
    13  C   -0.048358
    14  H    0.106569
    15  C   -0.103064
    16  H    0.108484
    17  C   -0.104057
    18  H    0.107071
    19  C   -0.049389
    20  H    0.096839
    21  C   -0.059575
    22  C    0.078645
    23  C   -0.047515
    24  H    0.107159
    25  C   -0.102474
    26  H    0.108750
    27  C   -0.103904
    28  H    0.107073
    29  C   -0.049331
    30  H    0.096487
    31  C    0.078300
    32  C   -0.059645
    33  C   -0.049422
    34  H    0.096827
    35  C   -0.104723
    36  H    0.107186
    37  C   -0.103662
    38  H    0.108758
    39  C   -0.050846
    40  H    0.107150
    41  C   -0.047966
    42  C   -0.021034
    43  H    0.113981
    44  C    0.079517
    45  C   -0.059566
    46  C   -0.045480
    47  H    0.096411
    48  C   -0.092396
    49  H    0.116224
    50  C   -0.544175
    51  C   -0.059654
    52  C    0.079788
    53  C   -0.020966
    54  H    0.114005
    55  C   -0.047944
    56  C   -0.092559
    57  H    0.116224
    58  C   -0.045466
    59  H    0.096413
    60  C   -0.059411
    61  C    0.077647
    62  C   -0.049672
    63  H    0.107513
    64  C   -0.103061
    65  H    0.108963
    66  C   -0.104363
    67  H    0.107141
    68  C   -0.049022
    69  H    0.096625
    70  C    0.077922
    71  C   -0.059425
    72  C   -0.048974
    73  H    0.096614
    74  C   -0.104380
    75  H    0.107141
    76  C   -0.103056
    77  H    0.108961
    78  C   -0.049650
    79  H    0.107503
    80  C   -0.048406
    81  C   -0.020976
    82  H    0.114334
    83  C    0.074698
    84  C   -0.054795
    85  C   -0.045844
    86  H    0.096248
    87  C   -0.092520
    88  H    0.116178
    89  C   -0.538063
    90  C   -0.064893
    91  C    0.084512
    92  C   -0.048408
    93  H    0.106578
    94  C   -0.103040
    95  H    0.108485
    96  C   -0.104056
    97  H    0.107074
    98  C   -0.049462
    99  H    0.096846
   100  C   -0.059692
   101  C    0.078323
   102  C   -0.050819
   103  H    0.107147
   104  C   -0.103668
   105  H    0.108765
   106  C   -0.104726
   107  H    0.107177
   108  C   -0.049392
   109  H    0.096821
   110  C    0.078656
   111  C   -0.059564
   112  C   -0.049303
   113  H    0.096483
   114  C   -0.103901
   115  H    0.107071
   116  C   -0.102480
   117  H    0.108745
   118  C   -0.047499
   119  H    0.107167
 Sum of Mulliken charges =   0.00000
 Mulliken charges with hydrogens summed into heavy atoms:
               1
     1  C   -0.048363
     2  C    0.093116
     4  C    0.074767
     5  C   -0.054823
     6  C    0.050402
     8  C    0.023832
    10  C   -0.538008
    11  C   -0.065002
    12  C    0.084569
    13  C    0.058211
    15  C    0.005420
    17  C    0.003014
    19  C    0.047451
    21  C   -0.059575
    22  C    0.078645
    23  C    0.059644
    25  C    0.006277
    27  C    0.003169
    29  C    0.047156
    31  C    0.078300
    32  C   -0.059645
    33  C    0.047405
    35  C    0.002463
    37  C    0.005096
    39  C    0.056305
    41  C   -0.047966
    42  C    0.092947
    44  C    0.079517
    45  C   -0.059566
    46  C    0.050931
    48  C    0.023828
    50  C   -0.544175
    51  C   -0.059654
    52  C    0.079788
    53  C    0.093039
    55  C   -0.047944
    56  C    0.023665
    58  C    0.050947
    60  C   -0.059411
    61  C    0.077647
    62  C    0.057841
    64  C    0.005902
    66  C    0.002778
    68  C    0.047603
    70  C    0.077922
    71  C   -0.059425
    72  C    0.047641
    74  C    0.002761
    76  C    0.005905
    78  C    0.057853
    80  C   -0.048406
    81  C    0.093357
    83  C    0.074698
    84  C   -0.054795
    85  C    0.050405
    87  C    0.023658
    89  C   -0.538063
    90  C   -0.064893
    91  C    0.084512
    92  C    0.058169
    94  C    0.005445
    96  C    0.003018
    98  C    0.047384
   100  C   -0.059692
   101  C    0.078323
   102  C    0.056328
   104  C    0.005097
   106  C    0.002451
   108  C    0.047429
   110  C    0.078656
   111  C   -0.059564
   112  C    0.047180
   114  C    0.003170
   116  C    0.006264
   118  C    0.059668
 Electronic spatial extent (au):  <R**2>=         123142.2854
 Charge=              0.0000 electrons
 Dipole moment (field-independent basis, Debye):
    X=              0.0184    Y=             -0.0484    Z=             -0.0278  Tot=              0.0587
 Quadrupole moment (field-independent basis, Debye-Ang):
   XX=           -408.6357   YY=           -392.4304   ZZ=           -394.7165
[...]
       Atomic Center    3 is at  -2.637540 -0.187470 -0.075370
       Atomic Center    4 is at  -3.647440 -2.070700  0.081680
       Atomic Center    5 is at  -3.533470 -3.455140  0.227200
       Atomic Center    6 is at  -2.279120 -4.037100  0.356540
       Atomic Center    7 is at  -2.171620 -5.109460  0.477810
       Atomic Center    8 is at  -1.156010 -3.221180  0.340290
       Atomic Center    9 is at  -0.173700 -3.663470  0.464760
       Atomic Center   10 is at  -5.106480 -1.660970 -0.048660
       Atomic Center   11 is at  -4.880910 -4.039370  0.209100
       Atomic Center   12 is at  -5.809680 -3.006350  0.049470
       Atomic Center   13 is at  -7.166400 -3.270540 -0.001520
       Atomic Center   14 is at  -7.880140 -2.463170 -0.125770
       Atomic Center   15 is at  -7.593230 -4.590870  0.109650
       Atomic Center   16 is at  -8.652380 -4.818770  0.072150
       Atomic Center   17 is at  -6.671220 -5.623490  0.268790
       Atomic Center   18 is at  -7.022100 -6.645800  0.353670
       Atomic Center   19 is at  -5.307450 -5.356930  0.319730
       Atomic Center   20 is at  -4.593460 -6.163890  0.443650
       Atomic Center   21 is at  -5.946160  0.355810 -1.048300
       Atomic Center   22 is at  -5.410640 -0.903550 -1.332310
       Atomic Center   23 is at  -5.215560 -1.316620 -2.637970
       Atomic Center   24 is at  -4.797940 -2.295190 -2.849290
       Atomic Center   25 is at  -5.564770 -0.450570 -3.670060
       Atomic Center   26 is at  -5.419160 -0.755100 -4.700180
       Atomic Center   27 is at  -6.099280  0.805890 -3.391720
       Atomic Center   28 is at  -6.364940  1.467300 -4.208640
       Atomic Center   29 is at  -6.294480  1.219970 -2.078780
       Atomic Center   30 is at  -6.710210  2.199090 -1.867020
       Atomic Center   31 is at  -5.548120 -0.659780  1.007920
       Atomic Center   32 is at  -6.031410  0.508090  0.411190
       Atomic Center   33 is at  -6.484840  1.561770  1.194940
       Atomic Center   34 is at  -6.861190  2.471480  0.739780
       Atomic Center   35 is at  -6.447270  1.429080  2.578620
       Atomic Center   36 is at  -6.797290  2.241230  3.205780
       Atomic Center   37 is at  -5.964520  0.262820  3.169170
       Atomic Center   38 is at  -5.943410  0.177950  4.249700
       Atomic Center   39 is at  -5.509980 -0.793060  2.384310
       Atomic Center   40 is at  -5.132960 -1.702970  2.838960
       Atomic Center   41 is at  -0.047510 -0.982100  0.184350
       Atomic Center   42 is at   1.099280 -1.391510 -0.503730
       Atomic Center   43 is at   1.102160 -2.323750 -1.059210
       Atomic Center   44 is at   2.219960 -0.585780 -0.493120
       Atomic Center   45 is at   2.229570  0.633140  0.189860
       Atomic Center   46 is at   1.096200  1.052140  0.874670
       Atomic Center   47 is at   1.087550  1.991520  1.416570
       Atomic Center   48 is at  -0.030670  0.241240  0.866520
       Atomic Center   49 is at  -0.912440  0.548320  1.418100
       Atomic Center   50 is at   3.559190 -0.834560 -1.169840
       Atomic Center   51 is at   3.548230  1.253850  0.017200
       Atomic Center   52 is at   4.334550  0.412870 -0.774600
       Atomic Center   53 is at   5.633980  0.745570 -1.100420
       Atomic Center   54 is at   6.237990  0.068950 -1.696240
       Atomic Center   55 is at   6.173260  1.947950 -0.631710
       Atomic Center   56 is at   5.378890  2.786200  0.161100
       Atomic Center   57 is at   5.789800  3.728600  0.506160
       Atomic Center   58 is at   4.072730  2.449780  0.490100
       Atomic Center   59 is at   3.474840  3.118530  1.099560
       Atomic Center   60 is at   4.469320 -2.954560 -1.838980
       Atomic Center   61 is at   4.226140 -2.130940 -0.736280
       Atomic Center   62 is at   4.578920 -2.527850  0.541020
       Atomic Center   63 is at   4.387520 -1.881650  1.391020
       Atomic Center   64 is at   5.183920 -3.770010  0.709450
       Atomic Center   65 is at   5.469140 -4.099140  1.702150
       Atomic Center   66 is at   5.428140 -4.594730 -0.386940
       Atomic Center   67 is at   5.900920 -5.558730 -0.236600
       Atomic Center   68 is at   5.073160 -4.194290 -1.670350
       Atomic Center   69 is at   5.265620 -4.839420 -2.520710
       Atomic Center   70 is at   3.455690 -1.032830 -2.674300
       Atomic Center   71 is at   3.989890 -2.269240 -3.047790
       Atomic Center   72 is at   3.999440 -2.656230 -4.382000
       Atomic Center   73 is at   4.411790 -3.614000 -4.680340
       Atomic Center   74 is at   3.468390 -1.790630 -5.331850
       Atomic Center   75 is at   3.466800 -2.076470 -6.377650
       Atomic Center   76 is at   2.936540 -0.559060 -4.954660
       Atomic Center   77 is at   2.525760  0.101570 -5.709620
       Atomic Center   78 is at   2.926830 -0.170810 -3.618050
       Atomic Center   79 is at   2.513080  0.786330 -3.319020
       Atomic Center   80 is at   7.565330  2.330720 -0.969980
       Atomic Center   81 is at   8.395960  2.910250 -0.005620
       Atomic Center   82 is at   8.037550  3.062120  1.007350
       Atomic Center   83 is at   9.686770  3.261980 -0.345880
       Atomic Center   84 is at  10.180310  3.047240 -1.634760
       Atomic Center   85 is at   9.366250  2.470300 -2.600830
       Atomic Center   86 is at   9.729740  2.302600 -3.608780
       Atomic Center   87 is at   8.067050  2.118470 -2.260560
       Atomic Center   88 is at   7.416020  1.689180 -3.014170
       Atomic Center   89 is at  10.749470  3.894670  0.539500
       Atomic Center   90 is at  11.570390  3.518750 -1.687340
       Atomic Center   91 is at  11.917270  4.016600 -0.427610
       Atomic Center   92 is at  13.178810  4.530570 -0.188020
       Atomic Center   93 is at  13.439640  4.914560  0.792420
       Atomic Center   94 is at  14.102460  4.543450 -1.229430
       Atomic Center   95 is at  15.096510  4.942120 -1.061950
       Atomic Center   96 is at  13.761210  4.048160 -2.486420
       Atomic Center   97 is at  14.493610  4.066250 -3.285610
       Atomic Center   98 is at  12.492720  3.531530 -2.726290
       Atomic Center   99 is at  12.231660  3.147010 -3.706260
       Atomic Center  100 is at  10.374500  5.165270  2.543620
       Atomic Center  101 is at  10.316640  5.219760  1.148170
       Atomic Center  102 is at   9.903350  6.367970  0.496680
       Atomic Center  103 is at   9.861370  6.401230 -0.586790
       Atomic Center  104 is at   9.544190  7.475040  1.260190
       Atomic Center  105 is at   9.218080  8.384610  0.768770
       Atomic Center  106 is at   9.600370  7.425340  2.651710
       Atomic Center  107 is at   9.317020  8.297410  3.230200
       Atomic Center  108 is at  10.015790  6.270410  3.305270
       Atomic Center  109 is at  10.057690  6.236400  4.388530
       Atomic Center  110 is at  11.067560  3.077660  1.782510
       Atomic Center  111 is at  10.843190  3.829430  2.939220
       Atomic Center  112 is at  11.067570  3.274130  4.192710
       Atomic Center  113 is at  10.895410  3.850470  5.095250
       Atomic Center  114 is at  11.517860  1.960870  4.269990
       Atomic Center  115 is at  11.697800  1.511000  5.239840
       Atomic Center  116 is at  11.739960  1.215120  3.113950
       Atomic Center  117 is at  12.090160  0.192400  3.194640
       Atomic Center  118 is at  11.515180  1.771000  1.857920
       Atomic Center  119 is at  11.685320  1.194310  0.955060
    4226 points will be used for fitting atomic charges
 Fitting point charges to electrostatic potential
 Charges from ESP fit, RMS=   0.00114 RRMS=   0.10337:
 ESP charges:
               1
     1  C    0.083790
     2  C   -0.307073
     3  H    0.182569
     4  C    0.575076
     5  C   -0.033300
     6  C   -0.212944
     7  H    0.162946
     8  C   -0.198843
     9  H    0.151502
    10  C   -1.743780
    11  C    0.042304
    12  C    0.615058
    13  C   -0.286347
    14  H    0.183485
    15  C   -0.170727
    16  H    0.149891
    17  C   -0.142895
    18  H    0.141590
    19  C   -0.240373
    20  H    0.161267
    21  C   -0.047020
    22  C    0.677777
    23  C   -0.294314
    24  H    0.187286
    25  C   -0.168689
    26  H    0.151012
    27  C   -0.155520
    28  H    0.144448
    29  C   -0.210631
    30  H    0.156166
    31  C    0.611868
    32  C    0.058013
    33  C   -0.262274
    34  H    0.168920
    35  C   -0.157133
    36  H    0.146698
    37  C   -0.145844
    38  H    0.143141
    39  C   -0.293981
    40  H    0.189795
    41  C    0.026568
    42  C   -0.310067
    43  H    0.181024
    44  C    0.631170
    45  C    0.007340
    46  C   -0.259867
    47  H    0.169809
    48  C   -0.163331
    49  H    0.147705
    50  C   -1.909696
    51  C    0.103384
    52  C    0.526589
    53  C   -0.266410
    54  H    0.177643
    55  C    0.022943
    56  C   -0.174346
    57  H    0.151065
    58  C   -0.275079
    59  H    0.169666
    60  C    0.048928
    61  C    0.645587
    62  C   -0.224046
    63  H    0.175657
    64  C   -0.208051
    65  H    0.155311
    66  C   -0.127939
    67  H    0.141105
    68  C   -0.262104
    69  H    0.163419
    70  C    0.692485
    71  C    0.005344
    72  C   -0.234891
    73  H    0.158612
    74  C   -0.154858
    75  H    0.145876
    76  C   -0.179885
    77  H    0.150863
    78  C   -0.258656
    79  H    0.180619
    80  C    0.120804
    81  C   -0.343367
    82  H    0.189928
    83  C    0.497903
    84  C   -0.015111
    85  C   -0.228077
    86  H    0.163123
    87  C   -0.201201
    88  H    0.148823
    89  C   -1.494159
    90  C    0.139413
    91  C    0.418650
    92  C   -0.230845
    93  H    0.173464
    94  C   -0.171586
    95  H    0.145921
    96  C   -0.125452
    97  H    0.140604
    98  C   -0.288587
    99  H    0.168716
   100  C   -0.046167
   101  C    0.592996
   102  C   -0.244458
   103  H    0.172003
   104  C   -0.186967
   105  H    0.153524
   106  C   -0.154871
   107  H    0.143678
   108  C   -0.193196
   109  H    0.151100
   110  C    0.555864
   111  C    0.040104
   112  C   -0.245772
   113  H    0.162028
   114  C   -0.141312
   115  H    0.142159
   116  C   -0.177319
   117  H    0.147531
   118  C   -0.237665
   119  H    0.175376
 Sum of ESP charges =   0.00000
 ESP charges with hydrogens summed into heavy atoms:
               1
     1  C    0.083790
     2  C   -0.124504
     4  C    0.575076
     5  C   -0.033300
     6  C   -0.049998
     8  C   -0.047341
    10  C   -1.743780
    11  C    0.042304
    12  C    0.615058
    13  C   -0.102862
    15  C   -0.020836
    17  C   -0.001305
    19  C   -0.079106
    21  C   -0.047020
    22  C    0.677777
    23  C   -0.107028
    25  C   -0.017678
    27  C   -0.011072
    29  C   -0.054465
    31  C    0.611868
    32  C    0.058013
    33  C   -0.093353
    35  C   -0.010435
    37  C   -0.002704
    39  C   -0.104186
    41  C    0.026568
    42  C   -0.129043
    44  C    0.631170
    45  C    0.007340
    46  C   -0.090058
    48  C   -0.015626
    50  C   -1.909696
    51  C    0.103384
    52  C    0.526589
    53  C   -0.088767
    55  C    0.022943
    56  C   -0.023282
    58  C   -0.105413
    60  C    0.048928
    61  C    0.645587
    62  C   -0.048389
    64  C   -0.052739
    66  C    0.013167
    68  C   -0.098685
    70  C    0.692485
    71  C    0.005344
    72  C   -0.076279
    74  C   -0.008982
    76  C   -0.029023
    78  C   -0.078037
    80  C    0.120804
    81  C   -0.153439
    83  C    0.497903
    84  C   -0.015111
    85  C   -0.064954
    87  C   -0.052379
    89  C   -1.494159
    90  C    0.139413
    91  C    0.418650
    92  C   -0.057381
    94  C   -0.025665
    96  C    0.015152
    98  C   -0.119870
   100  C   -0.046167
   101  C    0.592996
   102  C   -0.072455
   104  C   -0.033444
   106  C   -0.011193
   108  C   -0.042096
   110  C    0.555864
   111  C    0.040104
   112  C   -0.083744
   114  C    0.000847
   116  C   -0.029788
   118  C   -0.062289
 Charge=   0.00000 Dipole=     0.0247    -0.0562    -0.0251 Tot=     0.0663
 -----------------------------------------------------------------

              Electrostatic Properties (Atomic Units)

 -----------------------------------------------------------------
    Center     Electric         -------- Electric Field --------
               Potential          X             Y             Z
 -----------------------------------------------------------------
    1 Atom    -14.762838
    2 Atom    -14.775170
    3 Atom     -1.105433
    4 Atom    -14.768761
    5 Atom    -14.769128
    6 Atom    -14.771912
    7 Atom     -1.102567
    8 Atom    -14.774844
    9 Atom     -1.108120
   10 Atom    -14.737830
   11 Atom    -14.768388
   12 Atom    -14.768867
   13 Atom    -14.774598
   14 Atom     -1.106410
   15 Atom    -14.774864
   16 Atom     -1.108933
   17 Atom    -14.774131
   18 Atom     -1.108007
   19 Atom    -14.772416
   20 Atom     -1.102868
   21 Atom    -14.768683
   22 Atom    -14.769036
   23 Atom    -14.774908
   24 Atom     -1.106781
   25 Atom    -14.775113
   26 Atom     -1.109282
   27 Atom    -14.774360
   28 Atom     -1.108229
   29 Atom    -14.772461
   30 Atom     -1.102855
   31 Atom    -14.768613
   32 Atom    -14.768268
   33 Atom    -14.771926
   34 Atom     -1.102391
   35 Atom    -14.773636
   36 Atom     -1.107473
   37 Atom    -14.774338
   38 Atom     -1.108400
   39 Atom    -14.774151
   40 Atom     -1.105977
   41 Atom    -14.762881
   42 Atom    -14.775125
   43 Atom     -1.105380
   44 Atom    -14.768662
   45 Atom    -14.768866
   46 Atom    -14.771994
   47 Atom     -1.102704
   48 Atom    -14.774847
   49 Atom     -1.108162
   50 Atom    -14.737608
   51 Atom    -14.768867
   52 Atom    -14.768639
   53 Atom    -14.775112
   54 Atom     -1.105379
   55 Atom    -14.762876
   56 Atom    -14.774843
   57 Atom     -1.108157
   58 Atom    -14.772003
   59 Atom     -1.102706
   60 Atom    -14.768331
   61 Atom    -14.768683
   62 Atom    -14.774427
   63 Atom     -1.106303
   64 Atom    -14.774641
   65 Atom     -1.108796
   66 Atom    -14.773889
   67 Atom     -1.107755
   68 Atom    -14.772079
   69 Atom     -1.102508
   70 Atom    -14.768683
   71 Atom    -14.768334
   72 Atom    -14.772087
   73 Atom     -1.102517
   74 Atom    -14.773901
   75 Atom     -1.107765
   76 Atom    -14.774648
   77 Atom     -1.108803
   78 Atom    -14.774438
   79 Atom     -1.106312
   80 Atom    -14.762844
   81 Atom    -14.775191
   82 Atom     -1.105442
   83 Atom    -14.768774
   84 Atom    -14.769112
   85 Atom    -14.771899
   86 Atom     -1.102568
   87 Atom    -14.774830
   88 Atom     -1.108117
   89 Atom    -14.737859
   90 Atom    -14.768378
   91 Atom    -14.768883
   92 Atom    -14.774606
   93 Atom     -1.106414
   94 Atom    -14.774863
   95 Atom     -1.108932
   96 Atom    -14.774132
   97 Atom     -1.108005
   98 Atom    -14.772408
   99 Atom     -1.102869
  100 Atom    -14.768266
  101 Atom    -14.768621
  102 Atom    -14.774155
  103 Atom     -1.105977
  104 Atom    -14.774339
  105 Atom     -1.108396
  106 Atom    -14.773640
  107 Atom     -1.107486
  108 Atom    -14.771929
  109 Atom     -1.102394
  110 Atom    -14.769042
  111 Atom    -14.768677
  112 Atom    -14.772459
  113 Atom     -1.102854
  114 Atom    -14.774358
  115 Atom     -1.108229
  116 Atom    -14.775110
  117 Atom     -1.109281
  118 Atom    -14.774913
  119 Atom     -1.106781
 -----------------------------------------------------------------
 Leave Link  602 at Tue Jun 15 16:48:32 2021, MaxMem=  7864320000 cpu:               4.5 elap:               4.6
 (Enter /sw/linux/gaussian/g16/g16/l9999.exe)
 1\1\GINC-THINC346\SP\RwB97XD\6-311G(d,p)\C75H44\LINK\15-Jun-2021\0\\#P
  wb97xd/6-311g(d,p) nosymm pop=MK\\Title Card Required\\0,1\C,0,-1.262
 59,-1.83196,0.19486\C,0,-2.53128,-1.25856,0.0628\H,0,-2.63754,-0.18747
 ,-0.07537\C,0,-3.64744,-2.0707,0.08168\C,0,-3.53347,-3.45514,0.2272\C,
 0,-2.27912,-4.0371,0.35654\H,0,-2.17162,-5.10946,0.47781\C,0,-1.15601,
 -3.22118,0.34029\H,0,-0.1737,-3.66347,0.46476\C,0,-5.10648,-1.66097,-0
 .04866\C,0,-4.88091,-4.03937,0.2091\C,0,-5.80968,-3.00635,0.04947\C,0,
 -7.1664,-3.27054,-0.00152\H,0,-7.88014,-2.46317,-0.12577\C,0,-7.59323,
 -4.59087,0.10965\H,0,-8.65238,-4.81877,0.07215\C,0,-6.67122,-5.62349,0
 .26879\H,0,-7.0221,-6.6458,0.35367\C,0,-5.30745,-5.35693,0.31973\H,0,-
 4.59346,-6.16389,0.44365\C,0,-5.94616,0.35581,-1.0483\C,0,-5.41064,-0.
 90355,-1.33231\C,0,-5.21556,-1.31662,-2.63797\H,0,-4.79794,-2.29519,-2
 .84929\C,0,-5.56477,-0.45057,-3.67006\H,0,-5.41916,-0.7551,-4.70018\C,
 0,-6.09928,0.80589,-3.39172\H,0,-6.36494,1.4673,-4.20864\C,0,-6.29448,
 1.21997,-2.07878\H,0,-6.71021,2.19909,-1.86702\C,0,-5.54812,-0.65978,1
 .00792\C,0,-6.03141,0.50809,0.41119\C,0,-6.48484,1.56177,1.19494\H,0,-
 6.86119,2.47148,0.73978\C,0,-6.44727,1.42908,2.57862\H,0,-6.79729,2.24
 123,3.20578\C,0,-5.96452,0.26282,3.16917\H,0,-5.94341,0.17795,4.2497\C
 ,0,-5.50998,-0.79306,2.38431\H,0,-5.13296,-1.70297,2.83896\C,0,-0.0475
 1,-0.9821,0.18435\C,0,1.09928,-1.39151,-0.50373\H,0,1.10216,-2.32375,-
 1.05921\C,0,2.21996,-0.58578,-0.49312\C,0,2.22957,0.63314,0.18986\C,0,
 1.0962,1.05214,0.87467\H,0,1.08755,1.99152,1.41657\C,0,-0.03067,0.2412
 4,0.86652\H,0,-0.91244,0.54832,1.4181\C,0,3.55919,-0.83456,-1.16984\C,
 0,3.54823,1.25385,0.0172\C,0,4.33455,0.41287,-0.7746\C,0,5.63398,0.745
 57,-1.10042\H,0,6.23799,0.06895,-1.69624\C,0,6.17326,1.94795,-0.63171\
 C,0,5.37889,2.7862,0.1611\H,0,5.7898,3.7286,0.50616\C,0,4.07273,2.4497
 8,0.4901\H,0,3.47484,3.11853,1.09956\C,0,4.46932,-2.95456,-1.83898\C,0
 ,4.22614,-2.13094,-0.73628\C,0,4.57892,-2.52785,0.54102\H,0,4.38752,-1
 .88165,1.39102\C,0,5.18392,-3.77001,0.70945\H,0,5.46914,-4.09914,1.702
 15\C,0,5.42814,-4.59473,-0.38694\H,0,5.90092,-5.55873,-0.2366\C,0,5.07
 316,-4.19429,-1.67035\H,0,5.26562,-4.83942,-2.52071\C,0,3.45569,-1.032
 83,-2.6743\C,0,3.98989,-2.26924,-3.04779\C,0,3.99944,-2.65623,-4.382\H
 ,0,4.41179,-3.614,-4.68034\C,0,3.46839,-1.79063,-5.33185\H,0,3.4668,-2
 .07647,-6.37765\C,0,2.93654,-0.55906,-4.95466\H,0,2.52576,0.10157,-5.7
 0962\C,0,2.92683,-0.17081,-3.61805\H,0,2.51308,0.78633,-3.31902\C,0,7.
 56533,2.33072,-0.96998\C,0,8.39596,2.91025,-0.00562\H,0,8.03755,3.0621
 2,1.00735\C,0,9.68677,3.26198,-0.34588\C,0,10.18031,3.04724,-1.63476\C
 ,0,9.36625,2.4703,-2.60083\H,0,9.72974,2.3026,-3.60878\C,0,8.06705,2.1
 1847,-2.26056\H,0,7.41602,1.68918,-3.01417\C,0,10.74947,3.89467,0.5395
 \C,0,11.57039,3.51875,-1.68734\C,0,11.91727,4.0166,-0.42761\C,0,13.178
 81,4.53057,-0.18802\H,0,13.43964,4.91456,0.79242\C,0,14.10246,4.54345,
 -1.22943\H,0,15.09651,4.94212,-1.06195\C,0,13.76121,4.04816,-2.48642\H
 ,0,14.49361,4.06625,-3.28561\C,0,12.49272,3.53153,-2.72629\H,0,12.2316
 6,3.14701,-3.70626\C,0,10.3745,5.16527,2.54362\C,0,10.31664,5.21976,1.
 14817\C,0,9.90335,6.36797,0.49668\H,0,9.86137,6.40123,-0.58679\C,0,9.5
 4419,7.47504,1.26019\H,0,9.21808,8.38461,0.76877\C,0,9.60037,7.42534,2
 .65171\H,0,9.31702,8.29741,3.2302\C,0,10.01579,6.27041,3.30527\H,0,10.
 05769,6.2364,4.38853\C,0,11.06756,3.07766,1.78251\C,0,10.84319,3.82943
 ,2.93922\C,0,11.06757,3.27413,4.19271\H,0,10.89541,3.85047,5.09525\C,0
 ,11.51786,1.96087,4.26999\H,0,11.6978,1.511,5.23984\C,0,11.73996,1.215
 12,3.11395\H,0,12.09016,0.1924,3.19464\C,0,11.51518,1.771,1.85792\H,0,
 11.68532,1.19431,0.95506\\Version=ES64L-G16RevB.01\HF=-2884.2675618\RM
 SD=9.889e-09\Dipole=0.0072553,-0.0190251,-0.0109257\Quadrupole=-7.4656
 313,4.5826526,2.8829787,-6.1376183,-1.1927189,5.045888\PG=C01 [X(C75H4
 4)]\\@


 KEEP CLOSE TO NATURES HEART, YOURSELF;
 AND BREAK CLEAR AWAY, ONCE IN A WHILE, AND
 CLIMB A MOUNTAIN OR SPEND A WEEK IN THE
 WOODS.  WASH YOUR SPIRIT CLEAN...
                                         -- JOHN MUIR
 Job cpu time:       0 days  2 hours  2 minutes  6.7 seconds.
 Elapsed time:       0 days  2 hours  2 minutes  6.8 seconds.
 File lengths (MBytes):  RWF=   1401 Int=      0 D2E=      0 Chk=    151 Scr=      1
 Normal termination of Gaussian 16 at Tue Jun 15 16:48:32 2021.
