85
nN.log	Energy: -1944088.2730752
N         -0.00645        0.00120        0.17305
C         -1.41581       -0.09441        0.17930
C         -2.19009        0.76758       -0.59891
C         -3.57141        0.67539       -0.58537
C         -4.22502       -0.28371        0.19300
C         -3.44085       -1.14225        0.96927
C         -2.06008       -1.05048        0.96721
H         -1.70202        1.50857       -1.22087
H         -4.14992        1.34062       -1.21720
H         -3.92324       -1.87129        1.61052
H         -1.47078       -1.71653        1.58634
C          0.61565        1.26962        0.17422
C          1.74279        1.50894       -0.61339
C          2.35475        2.75075       -0.60379
C          1.85832        3.79590        0.17992
C          0.72854        3.54661        0.96486
C          0.11661        2.30540        0.96668
H          2.13458        0.71590       -1.23924
H          3.21502        2.91902       -1.24255
H          0.34424        4.32877        1.60978
H         -0.75013        2.12804        1.59243
C          0.78158       -1.17130        0.17252
C          1.93340       -1.25358        0.95765
C          2.70439       -2.40272        0.95312
C          2.35228       -3.50803        0.17281
C          1.19311       -3.41928       -0.60267
C          0.42156       -2.26976       -0.60969
H          2.21612       -0.41253        1.57969
H          3.57848       -2.45786        1.59211
H          0.90570       -4.25047       -1.23745
H         -0.46555       -2.21569       -1.22955
C         -5.68767       -0.40909        0.20101
C         -6.43645       -1.54449        0.33942
S         -6.71831        0.97649        0.03089
C         -7.83401       -1.30518        0.30953
H         -5.99546       -2.52760        0.44084
C         -8.15663        0.01277        0.14630
H         -8.58091       -2.08022        0.42229
C         -9.49507        0.61527        0.06435
C         -9.75832        1.88369        0.58927
C        -10.54083       -0.08872       -0.54058
C        -11.03134        2.43078        0.51240
H         -8.96420        2.43777        1.07794
C        -11.81522        0.45540       -0.60586
H        -10.34426       -1.06048       -0.97927
C        -12.06562        1.71811       -0.08166
H        -11.21735        3.41495        0.92715
H        -12.61365       -0.10436       -1.07974
H        -13.06019        2.14515       -0.13852
C          2.48365        5.12411        0.18508
C          1.87881        6.34162        0.32905
S          4.19832        5.31974        0.00360
C          2.78740        7.42998        0.29448
H          0.80792        6.45388        0.43792
C          4.08802        7.04742        0.12207
H          2.49295        8.46492        0.41057
C          5.28083        7.90216        0.03411
C          6.51367        7.49012        0.54798
C          5.19339        9.16246       -0.56515
C          7.62597        8.31584        0.46603
H          6.59728        6.52311        1.03205
C          6.30392        9.99088       -0.63542
H          4.25129        9.48292       -0.99544
C          7.52532        9.57060       -0.12216
H          8.57338        7.98014        0.87215
H          6.21770       10.96444       -1.10461
H          8.39393       10.21605       -0.18288
C          3.19329       -4.71130        0.17334
C          4.55154       -4.79153        0.30586
S          2.50913       -6.29651       -0.00010
C          5.04401       -6.12097        0.26873
H          5.18214       -3.91791        0.40796
C          4.06404       -7.05952        0.10593
H          6.08934       -6.37986        0.37607
C          4.21209       -8.51948        0.01809
C          3.24730       -9.38411        0.54280
C          5.34300       -9.07048       -0.59225
C          3.41040      -10.75972        0.46046
H          2.37159       -8.97580        1.03557
C          5.50943      -10.44588       -0.66298
H          6.08468       -8.41248       -1.03083
C          4.54314      -11.29648       -0.13889
H          2.65261      -11.41472        0.87515
H          6.39224      -10.85527       -1.14092
H          4.67096      -12.37105       -0.19998
