 Entering Gaussian System, Link 0=g16
 Input=MK.com
 Output=MK.log
 Initial command:
 /sw/linux/gaussian/g16/g16/l1.exe "/usr/scratch/link/Gau-26136.inp" -scrdir="/usr/scratch/link/"
 Entering Link 1 = /sw/linux/gaussian/g16/g16/l1.exe PID=     26138.
  
 Copyright (c) 1988-2017, Gaussian, Inc.  All Rights Reserved.
  
 This is part of the Gaussian(R) 16 program.  It is based on
 the Gaussian(R) 09 system (copyright 2009, Gaussian, Inc.),
 the Gaussian(R) 03 system (copyright 2003, Gaussian, Inc.),
 the Gaussian(R) 98 system (copyright 1998, Gaussian, Inc.),
 the Gaussian(R) 94 system (copyright 1995, Gaussian, Inc.),
 the Gaussian 92(TM) system (copyright 1992, Gaussian, Inc.),
 the Gaussian 90(TM) system (copyright 1990, Gaussian, Inc.),
 the Gaussian 88(TM) system (copyright 1988, Gaussian, Inc.),
 the Gaussian 86(TM) system (copyright 1986, Carnegie Mellon
 University), and the Gaussian 82(TM) system (copyright 1983,
 Carnegie Mellon University). Gaussian is a federally registered
 trademark of Gaussian, Inc.
  
 This software contains proprietary and confidential information,
 including trade secrets, belonging to Gaussian, Inc.
  
 This software is provided under written license and may be
 used, copied, transmitted, or stored only in accord with that
 written license.
  
 The following legend is applicable only to US Government
 contracts under FAR:
  
                    RESTRICTED RIGHTS LEGEND
  
 Use, reproduction and disclosure by the US Government is
 subject to restrictions as set forth in subparagraphs (a)
 and (c) of the Commercial Computer Software - Restricted
 Rights clause in FAR 52.227-19.
  
 Gaussian, Inc.
 340 Quinnipiac St., Bldg. 40, Wallingford CT 06492
  
  
 ---------------------------------------------------------------
 Warning -- This program may not be used in any manner that
 competes with the business of Gaussian, Inc. or will provide
 assistance to any competitor of Gaussian, Inc.  The licensee
 of this program is prohibited from giving any competitor of
 Gaussian, Inc. access to this program.  By using this program,
 the user acknowledges that Gaussian, Inc. is engaged in the
 business of creating and licensing software in the field of
 computational chemistry and represents and warrants to the
 licensee that it is not a competitor of Gaussian, Inc. and that
 it will not use this program in any manner prohibited above.
 ---------------------------------------------------------------
  

 Cite this work as:
 Gaussian 16, Revision B.01,
 M. J. Frisch, G. W. Trucks, H. B. Schlegel, G. E. Scuseria, 
 M. A. Robb, J. R. Cheeseman, G. Scalmani, V. Barone, 
 G. A. Petersson, H. Nakatsuji, X. Li, M. Caricato, A. V. Marenich, 
 J. Bloino, B. G. Janesko, R. Gomperts, B. Mennucci, H. P. Hratchian, 
 J. V. Ortiz, A. F. Izmaylov, J. L. Sonnenberg, D. Williams-Young, 
 F. Ding, F. Lipparini, F. Egidi, J. Goings, B. Peng, A. Petrone, 
 T. Henderson, D. Ranasinghe, V. G. Zakrzewski, J. Gao, N. Rega, 
 G. Zheng, W. Liang, M. Hada, M. Ehara, K. Toyota, R. Fukuda, 
 J. Hasegawa, M. Ishida, T. Nakajima, Y. Honda, O. Kitao, H. Nakai, 
 T. Vreven, K. Throssell, J. A. Montgomery, Jr., J. E. Peralta, 
 F. Ogliaro, M. J. Bearpark, J. J. Heyd, E. N. Brothers, K. N. Kudin, 
 V. N. Staroverov, T. A. Keith, R. Kobayashi, J. Normand, 
 K. Raghavachari, A. P. Rendell, J. C. Burant, S. S. Iyengar, 
 J. Tomasi, M. Cossi, J. M. Millam, M. Klene, C. Adamo, R. Cammi, 
 J. W. Ochterski, R. L. Martin, K. Morokuma, O. Farkas, 
 J. B. Foresman, and D. J. Fox, Gaussian, Inc., Wallingford CT, 2016.
 
 ******************************************
 Gaussian 16:  ES64L-G16RevB.01 20-Dec-2017
                15-Jun-2021 
 ******************************************
 %mem=60000MB
 -----------------------------------
 #P wb97xd/6-311g(d,p) nosymm pop=MK
 -----------------------------------
 1/38=1,172=1/1;
 2/12=2,15=1,17=6,18=5,40=1/2;
 3/5=4,6=6,7=101,11=2,25=1,30=1,74=-58/1,2,3;
 4//1;
 5/5=2,38=5/2;
 6/7=2,8=2,9=2,10=2,15=8,20=1,28=1/1,2;
 99/5=1,9=1/99;
 Leave Link    1 at Tue Jun 15 14:46:31 2021, MaxMem=  7864320000 cpu:               0.0 elap:               0.0
 (Enter /sw/linux/gaussian/g16/g16/l101.exe)
 -------------------
 Title Card Required
 -------------------
 Symbolic Z-matrix:
 Charge =  0 Multiplicity = 1
 C                    -0.06848   0.36861   0.12804 
 C                     1.32502   0.33699   0.12688 
 C                     2.02616   1.54168   0.12609 
 C                     1.35682   2.76431   0.12552 
 C                    -0.03701   2.76917   0.12593 
 C                    -0.76107   1.57819   0.12706 
 H                    -0.62345  -0.56342   0.12998 
 H                     3.11081   1.52718   0.12633 
 H                    -0.56692   3.71568   0.12591 
 C                     1.72476   5.10464   0.93956 
 C                     2.11461   4.04109   0.12366 
 C                     3.23504   4.19802  -0.69124 
 C                     3.96617   5.38509  -0.70046 
 C                     3.55925   6.43441   0.12478 
 C                     2.44331   6.2917    0.93676 
 H                     0.86762   4.99237   1.59414 
 H                     3.54493   3.37824  -1.33083 
 H                     4.1049    7.37127   0.1124 
 H                     2.13172   7.11164   1.57356 
 C                     6.31414   6.15809  -1.1356 
 C                     5.15135   5.52941  -1.57968 
 C                     5.15451   5.04234  -2.88634 
 C                     6.29129   5.20258  -3.66629 
 N                     7.40369   5.80186  -3.24512 
 C                     7.39708   6.26624  -1.99683 
 H                     6.38568   6.54021  -0.12386 
 H                     4.27539   4.56336  -3.30161 
 H                     6.3061    4.83349  -4.68806 
 H                     8.31176   6.74804  -1.66253 
 C                     3.16778  -1.15291   0.94015 
 C                     2.05139  -0.95792   0.12503 
 C                     1.6256   -2.00641  -0.68953 
 C                     2.28682  -3.23376  -0.69892 
 C                     3.39944  -3.40692   0.12558 
 C                     3.83543  -2.36939   0.93704 
 H                     3.50027  -0.35462   1.59434 
 H                     0.76052  -1.86424  -1.32872 
 H                     3.93708  -4.3484    0.11303 
 H                     4.70162  -2.5102    1.57327 
 C                     1.77948  -5.65329  -1.13244 
 C                     1.81709  -4.33219  -1.57714 
 C                     1.39194  -4.09156  -2.88321 
 C                     0.95982  -5.15606  -3.66194 
 N                     0.92195  -6.41885  -3.24017 
 C                     1.32928  -6.64519  -1.99246 
 H                     2.07585  -5.90614  -0.12101 
 H                     1.41704  -3.09095  -3.29897 
 H                     0.63124  -4.98443  -4.68324 
 H                     1.28867  -7.67803  -1.65762 
 C                    -2.97196   0.7319    0.94684 
 C                    -2.24568   1.5965    0.12601 
 C                    -2.94149   2.4845   -0.6933 
 C                    -4.33506   2.52503  -0.70206 
 C                    -5.04059   1.65309   0.12839 
 C                    -4.35928   0.76184   0.94479 
 H                    -2.44618   0.04874   1.60457 
 H                    -2.38625   3.15893  -1.33675 
 H                    -6.12477   1.65804   0.11657 
 H                    -4.91373   0.08593   1.58559 
 C                    -6.17824   4.16983  -1.14642 
 C                    -5.05225   3.47479  -1.58639 
 C                    -4.6314    3.71422  -2.89412 
 C                    -5.3381    4.61464  -3.67902 
 N                    -6.4134    5.28066  -3.2618 
 C                    -6.81289   5.04921  -2.0125 
 H                    -6.54542   4.04594  -0.1342 
 H                    -3.77688   3.19017  -3.30628 
 H                    -5.02537   4.80673  -4.70166 
 H                    -7.68759   5.60227  -1.6815 
 
 ITRead=  0  0  0  0  0  0  0  0  0  0  0  0  0  0  0  0  0  0  0  0
 ITRead=  0  0  0  0  0  0  0  0  0  0  0  0  0  0  0  0  0  0  0  0
 ITRead=  0  0  0  0  0  0  0  0  0  0  0  0  0  0  0  0  0  0  0  0
 ITRead=  0  0  0  0  0  0  0  0  0
 MicOpt= -1 -1 -1 -1 -1 -1 -1 -1 -1 -1 -1 -1 -1 -1 -1 -1 -1 -1 -1 -1
 MicOpt= -1 -1 -1 -1 -1 -1 -1 -1 -1 -1 -1 -1 -1 -1 -1 -1 -1 -1 -1 -1
 MicOpt= -1 -1 -1 -1 -1 -1 -1 -1 -1 -1 -1 -1 -1 -1 -1 -1 -1 -1 -1 -1
 MicOpt= -1 -1 -1 -1 -1 -1 -1 -1 -1
 NAtoms=     69 NQM=       69 NQMF=       0 NMMI=      0 NMMIF=      0
                NMic=       0 NMicF=      0.
                    Isotopes and Nuclear Properties:
 (Nuclear quadrupole moments (NQMom) in fm**2, nuclear magnetic moments (NMagM)
  in nuclear magnetons)

  Atom         1           2           3           4           5           6           7           8           9          10
 IAtWgt=          12          12          12          12          12          12           1           1           1          12
 AtmWgt=  12.0000000  12.0000000  12.0000000  12.0000000  12.0000000  12.0000000   1.0078250   1.0078250   1.0078250  12.0000000
 NucSpn=           0           0           0           0           0           0           1           1           1           0
 AtZEff=   0.0000000   0.0000000   0.0000000   0.0000000   0.0000000   0.0000000   0.0000000   0.0000000   0.0000000   0.0000000
 NQMom=    0.0000000   0.0000000   0.0000000   0.0000000   0.0000000   0.0000000   0.0000000   0.0000000   0.0000000   0.0000000
 NMagM=    0.0000000   0.0000000   0.0000000   0.0000000   0.0000000   0.0000000   2.7928460   2.7928460   2.7928460   0.0000000
 AtZNuc=   6.0000000   6.0000000   6.0000000   6.0000000   6.0000000   6.0000000   1.0000000   1.0000000   1.0000000   6.0000000

  Atom        11          12          13          14          15          16          17          18          19          20
 IAtWgt=          12          12          12          12          12           1           1           1           1          12
 AtmWgt=  12.0000000  12.0000000  12.0000000  12.0000000  12.0000000   1.0078250   1.0078250   1.0078250   1.0078250  12.0000000
 NucSpn=           0           0           0           0           0           1           1           1           1           0
 AtZEff=   0.0000000   0.0000000   0.0000000   0.0000000   0.0000000   0.0000000   0.0000000   0.0000000   0.0000000   0.0000000
 NQMom=    0.0000000   0.0000000   0.0000000   0.0000000   0.0000000   0.0000000   0.0000000   0.0000000   0.0000000   0.0000000
 NMagM=    0.0000000   0.0000000   0.0000000   0.0000000   0.0000000   2.7928460   2.7928460   2.7928460   2.7928460   0.0000000
 AtZNuc=   6.0000000   6.0000000   6.0000000   6.0000000   6.0000000   1.0000000   1.0000000   1.0000000   1.0000000   6.0000000

  Atom        21          22          23          24          25          26          27          28          29          30
 IAtWgt=          12          12          12          14          12           1           1           1           1          12
 AtmWgt=  12.0000000  12.0000000  12.0000000  14.0030740  12.0000000   1.0078250   1.0078250   1.0078250   1.0078250  12.0000000
 NucSpn=           0           0           0           2           0           1           1           1           1           0
 AtZEff=   0.0000000   0.0000000   0.0000000   0.0000000   0.0000000   0.0000000   0.0000000   0.0000000   0.0000000   0.0000000
 NQMom=    0.0000000   0.0000000   0.0000000   2.0440000   0.0000000   0.0000000   0.0000000   0.0000000   0.0000000   0.0000000
 NMagM=    0.0000000   0.0000000   0.0000000   0.4037610   0.0000000   2.7928460   2.7928460   2.7928460   2.7928460   0.0000000
 AtZNuc=   6.0000000   6.0000000   6.0000000   7.0000000   6.0000000   1.0000000   1.0000000   1.0000000   1.0000000   6.0000000

  Atom        31          32          33          34          35          36          37          38          39          40
 IAtWgt=          12          12          12          12          12           1           1           1           1          12
 AtmWgt=  12.0000000  12.0000000  12.0000000  12.0000000  12.0000000   1.0078250   1.0078250   1.0078250   1.0078250  12.0000000
 NucSpn=           0           0           0           0           0           1           1           1           1           0
 AtZEff=   0.0000000   0.0000000   0.0000000   0.0000000   0.0000000   0.0000000   0.0000000   0.0000000   0.0000000   0.0000000
 NQMom=    0.0000000   0.0000000   0.0000000   0.0000000   0.0000000   0.0000000   0.0000000   0.0000000   0.0000000   0.0000000
 NMagM=    0.0000000   0.0000000   0.0000000   0.0000000   0.0000000   2.7928460   2.7928460   2.7928460   2.7928460   0.0000000
 AtZNuc=   6.0000000   6.0000000   6.0000000   6.0000000   6.0000000   1.0000000   1.0000000   1.0000000   1.0000000   6.0000000

  Atom        41          42          43          44          45          46          47          48          49          50
 IAtWgt=          12          12          12          14          12           1           1           1           1          12
 AtmWgt=  12.0000000  12.0000000  12.0000000  14.0030740  12.0000000   1.0078250   1.0078250   1.0078250   1.0078250  12.0000000
 NucSpn=           0           0           0           2           0           1           1           1           1           0
 AtZEff=   0.0000000   0.0000000   0.0000000   0.0000000   0.0000000   0.0000000   0.0000000   0.0000000   0.0000000   0.0000000
 NQMom=    0.0000000   0.0000000   0.0000000   2.0440000   0.0000000   0.0000000   0.0000000   0.0000000   0.0000000   0.0000000
 NMagM=    0.0000000   0.0000000   0.0000000   0.4037610   0.0000000   2.7928460   2.7928460   2.7928460   2.7928460   0.0000000
 AtZNuc=   6.0000000   6.0000000   6.0000000   7.0000000   6.0000000   1.0000000   1.0000000   1.0000000   1.0000000   6.0000000

  Atom        51          52          53          54          55          56          57          58          59          60
 IAtWgt=          12          12          12          12          12           1           1           1           1          12
 AtmWgt=  12.0000000  12.0000000  12.0000000  12.0000000  12.0000000   1.0078250   1.0078250   1.0078250   1.0078250  12.0000000
 NucSpn=           0           0           0           0           0           1           1           1           1           0
 AtZEff=   0.0000000   0.0000000   0.0000000   0.0000000   0.0000000   0.0000000   0.0000000   0.0000000   0.0000000   0.0000000
 NQMom=    0.0000000   0.0000000   0.0000000   0.0000000   0.0000000   0.0000000   0.0000000   0.0000000   0.0000000   0.0000000
 NMagM=    0.0000000   0.0000000   0.0000000   0.0000000   0.0000000   2.7928460   2.7928460   2.7928460   2.7928460   0.0000000
 AtZNuc=   6.0000000   6.0000000   6.0000000   6.0000000   6.0000000   1.0000000   1.0000000   1.0000000   1.0000000   6.0000000

  Atom        61          62          63          64          65          66          67          68          69
 IAtWgt=          12          12          12          14          12           1           1           1           1
 AtmWgt=  12.0000000  12.0000000  12.0000000  14.0030740  12.0000000   1.0078250   1.0078250   1.0078250   1.0078250
 NucSpn=           0           0           0           2           0           1           1           1           1
 AtZEff=   0.0000000   0.0000000   0.0000000   0.0000000   0.0000000   0.0000000   0.0000000   0.0000000   0.0000000
 NQMom=    0.0000000   0.0000000   0.0000000   2.0440000   0.0000000   0.0000000   0.0000000   0.0000000   0.0000000
 NMagM=    0.0000000   0.0000000   0.0000000   0.4037610   0.0000000   2.7928460   2.7928460   2.7928460   2.7928460
 AtZNuc=   6.0000000   6.0000000   6.0000000   7.0000000   6.0000000   1.0000000   1.0000000   1.0000000   1.0000000
 Leave Link  101 at Tue Jun 15 14:46:31 2021, MaxMem=  7864320000 cpu:               0.2 elap:               0.2
 (Enter /sw/linux/gaussian/g16/g16/l202.exe)
 Symmetry turned off by external request.
 Stoichiometry    C39H27N3
 Framework group  C1[X(C39H27N3)]
 Deg. of freedom   201
 Full point group                 C1      NOp   1
                          Input orientation:                          
 ---------------------------------------------------------------------
 Center     Atomic      Atomic             Coordinates (Angstroms)
 Number     Number       Type             X           Y           Z
 ---------------------------------------------------------------------
      1          6           0       -0.068480    0.368610    0.128040
      2          6           0        1.325020    0.336990    0.126880
      3          6           0        2.026160    1.541680    0.126090
      4          6           0        1.356820    2.764310    0.125520
      5          6           0       -0.037010    2.769170    0.125930
      6          6           0       -0.761070    1.578190    0.127060
      7          1           0       -0.623450   -0.563420    0.129980
      8          1           0        3.110810    1.527180    0.126330
      9          1           0       -0.566920    3.715680    0.125910
     10          6           0        1.724760    5.104640    0.939560
     11          6           0        2.114610    4.041090    0.123660
     12          6           0        3.235040    4.198020   -0.691240
     13          6           0        3.966170    5.385090   -0.700460
     14          6           0        3.559250    6.434410    0.124780
     15          6           0        2.443310    6.291700    0.936760
     16          1           0        0.867620    4.992370    1.594140
     17          1           0        3.544930    3.378240   -1.330830
     18          1           0        4.104900    7.371270    0.112400
     19          1           0        2.131720    7.111640    1.573560
     20          6           0        6.314140    6.158090   -1.135600
     21          6           0        5.151350    5.529410   -1.579680
     22          6           0        5.154510    5.042340   -2.886340
     23          6           0        6.291290    5.202580   -3.666290
     24          7           0        7.403690    5.801860   -3.245120
     25          6           0        7.397080    6.266240   -1.996830
     26          1           0        6.385680    6.540210   -0.123860
     27          1           0        4.275390    4.563360   -3.301610
     28          1           0        6.306100    4.833490   -4.688060
     29          1           0        8.311760    6.748040   -1.662530
     30          6           0        3.167780   -1.152910    0.940150
     31          6           0        2.051390   -0.957920    0.125030
     32          6           0        1.625600   -2.006410   -0.689530
     33          6           0        2.286820   -3.233760   -0.698920
     34          6           0        3.399440   -3.406920    0.125580
     35          6           0        3.835430   -2.369390    0.937040
     36          1           0        3.500270   -0.354620    1.594340
     37          1           0        0.760520   -1.864240   -1.328720
     38          1           0        3.937080   -4.348400    0.113030
     39          1           0        4.701620   -2.510200    1.573270
     40          6           0        1.779480   -5.653290   -1.132440
     41          6           0        1.817090   -4.332190   -1.577140
     42          6           0        1.391940   -4.091560   -2.883210
     43          6           0        0.959820   -5.156060   -3.661940
     44          7           0        0.921950   -6.418850   -3.240170
     45          6           0        1.329280   -6.645190   -1.992460
     46          1           0        2.075850   -5.906140   -0.121010
     47          1           0        1.417040   -3.090950   -3.298970
     48          1           0        0.631240   -4.984430   -4.683240
     49          1           0        1.288670   -7.678030   -1.657620
     50          6           0       -2.971960    0.731900    0.946840
     51          6           0       -2.245680    1.596500    0.126010
     52          6           0       -2.941490    2.484500   -0.693300
     53          6           0       -4.335060    2.525030   -0.702060
     54          6           0       -5.040590    1.653090    0.128390
     55          6           0       -4.359280    0.761840    0.944790
     56          1           0       -2.446180    0.048740    1.604570
     57          1           0       -2.386250    3.158930   -1.336750
     58          1           0       -6.124770    1.658040    0.116570
     59          1           0       -4.913730    0.085930    1.585590
     60          6           0       -6.178240    4.169830   -1.146420
     61          6           0       -5.052250    3.474790   -1.586390
     62          6           0       -4.631400    3.714220   -2.894120
     63          6           0       -5.338100    4.614640   -3.679020
     64          7           0       -6.413400    5.280660   -3.261800
     65          6           0       -6.812890    5.049210   -2.012500
     66          1           0       -6.545420    4.045940   -0.134200
     67          1           0       -3.776880    3.190170   -3.306280
     68          1           0       -5.025370    4.806730   -4.701660
     69          1           0       -7.687590    5.602270   -1.681500
 ---------------------------------------------------------------------
 Rotational constants (GHZ):           0.0533751           0.0532620           0.0305820
 Leave Link  202 at Tue Jun 15 14:46:31 2021, MaxMem=  7864320000 cpu:               0.0 elap:               0.0
 (Enter /sw/linux/gaussian/g16/g16/l301.exe)
 Standard basis: 6-311G(d,p) (5D, 7F)
 Ernie: Thresh=  0.10000D-02 Tol=  0.10000D-05 Strict=F.
   918 basis functions,  1560 primitive gaussians,   960 cartesian basis functions
   141 alpha electrons      141 beta electrons
       nuclear repulsion energy      3985.9463657714 Hartrees.
 IExCor= 4639 DFT=T Ex+Corr=wB97XD ExCW=0 ScaHFX=  1.000000
 ScaDFX=  1.000000  1.000000  1.000000  1.000000 ScalE2=  1.000000  1.000000
 IRadAn=      5 IRanWt=     -1 IRanGd=            0 ICorTp=0 IEmpDi=121
 HFx  wShort=  0.000000 wLong=  0.200000 cFull=  0.222036 cShort=  0.000000 cLong=  0.777964
 DFx  wShort=  0.000000 wLong=  0.200000 cFull=  0.000000 cShort=  0.000000 cLong=  1.000000
 NAtoms=   69 NActive=   69 NUniq=   69 SFac= 1.00D+00 NAtFMM=   60 NAOKFM=T Big=T
 Integral buffers will be    131072 words long.
 Raffenetti 2 integral format.
 Two-electron integral symmetry is turned off.
 R6Disp:  Grimme-D2 Dispersion energy=       -0.0515475724 Hartrees.
 Nuclear repulsion after empirical dispersion term =     3985.8948181990 Hartrees.
 Leave Link  301 at Tue Jun 15 14:46:31 2021, MaxMem=  7864320000 cpu:               0.1 elap:               0.1
 (Enter /sw/linux/gaussian/g16/g16/l302.exe)
 NPDir=0 NMtPBC=     1 NCelOv=     1 NCel=       1 NClECP=     1 NCelD=      1
         NCelK=      1 NCelE2=     1 NClLst=     1 CellRange=     0.0.
 One-electron integrals computed using PRISM.
 NBasis=   918 RedAO= T EigKep=  1.36D-04  NBF=   918
 NBsUse=   918 1.00D-06 EigRej= -1.00D+00 NBFU=   918
 Precomputing XC quadrature grid using
 IXCGrd= 4 IRadAn=           5 IRanWt=          -1 IRanGd=           0 AccXCQ= 0.00D+00.
 Generated NRdTot=       0 NPtTot=           0 NUsed=           0 NTot=          32
 NSgBfM=   876   874   876   876   876 MxSgAt=    69 MxSgA2=    69.
 Leave Link  302 at Tue Jun 15 14:46:38 2021, MaxMem=  7864320000 cpu:               6.7 elap:               6.7
 (Enter /sw/linux/gaussian/g16/g16/l303.exe)
 DipDrv:  MaxL=1.
 Leave Link  303 at Tue Jun 15 14:46:38 2021, MaxMem=  7864320000 cpu:               0.1 elap:               0.1
 (Enter /sw/linux/gaussian/g16/g16/l401.exe)
 ExpMin= 1.03D-01 ExpMax= 6.29D+03 ExpMxC= 9.49D+02 IAcc=3 IRadAn=         5 AccDes= 0.00D+00
 Harris functional with IExCor= 4639 and IRadAn=       5 diagonalized for initial guess.
 HarFok:  IExCor= 4639 AccDes= 0.00D+00 IRadAn=         5 IDoV= 1 UseB2=F ITyADJ=14
 ICtDFT=  3500011 ScaDFX=  1.000000  1.000000  1.000000  1.000000
 FoFCou: FMM=F IPFlag=           0 FMFlag=      100000 FMFlg1=        2001
         NFxFlg=           0 DoJE=T BraDBF=F KetDBF=T FulRan=T
         wScrn=  0.000000 ICntrl=       500 IOpCl=  0 I1Cent=   200000004 NGrid=           0
         NMat0=    1 NMatS0=      1 NMatT0=    0 NMatD0=    1 NMtDS0=    0 NMtDT0=    0
 Symmetry not used in FoFCou.
 Harris En= -1591.82366353791    
 JPrj=0 DoOrth=F DoCkMO=F.
 Leave Link  401 at Tue Jun 15 14:47:53 2021, MaxMem=  7864320000 cpu:              74.8 elap:              74.9
 (Enter /sw/linux/gaussian/g16/g16/l502.exe)
 Two-electron integral symmetry not used.
 Closed shell SCF:
 Using DIIS extrapolation, IDIIS=  1040.
 NGot=  7864320000 LenX=  7862464073 LenY=  7861541513
 Requested convergence on RMS density matrix=1.00D-08 within 128 cycles.
 Requested convergence on MAX density matrix=1.00D-06.
 Requested convergence on             energy=1.00D-06.
 No special actions if energy rises.
 Fock matrices will be formed incrementally for  20 cycles.
 Integral accuracy reduced to 1.0D-05 until final iterations.

 Cycle   1  Pass 0  IDiag  1:
 FoFJK:  IHMeth= 1 ICntrl=       0 DoSepK=T KAlg= 0 I1Cent=           0 FoldK=F
 IRaf=         1 NMat=       1 IRICut=       1 DoRegI=T DoRafI=F ISym2E= 0 IDoP0=0 IntGTp=1.
 FoFCou: FMM=T IPFlag=           0 FMFlag=      100000 FMFlg1=        2001
         NFxFlg=           0 DoJE=T BraDBF=F KetDBF=F FulRan=T
         wScrn=  0.000000 ICntrl=       500 IOpCl=  0 I1Cent=           0 NGrid=           0
         NMat0=    1 NMatS0=      1 NMatT0=    0 NMatD0=    1 NMtDS0=    0 NMtDT0=    0
 Symmetry not used in FoFCou.
 FMM levels:  10  Number of levels for PrismC:   9
 E= -1666.14222542019    
 DIIS: error= 6.14D-02 at cycle   1 NSaved=   1.
 NSaved= 1 IEnMin= 1 EnMin= -1666.14222542019     IErMin= 1 ErrMin= 6.14D-02
 ErrMax= 6.14D-02  0.00D+00 EMaxC= 1.00D-01 BMatC= 3.46D+00 BMatP= 3.46D+00
 IDIUse=3 WtCom= 3.86D-01 WtEn= 6.14D-01
 Coeff-Com:  0.100D+01
 Coeff-En:   0.100D+01
 Coeff:      0.100D+01
 Gap=     0.390 Goal=   None    Shift=    0.000
 GapD=    0.390 DampG=1.000 DampE=0.500 DampFc=0.5000 IDamp=-1.
 Damping current iteration by 5.00D-01
 RMSDP=9.26D-04 MaxDP=5.18D-02              OVMax= 5.25D-02

 Cycle   2  Pass 0  IDiag  1:
 RMSU=  4.55D-04    CP:  9.86D-01
 E= -1666.31592064843     Delta-E=       -0.173695228241 Rises=F Damp=T
 DIIS: error= 2.88D-02 at cycle   2 NSaved=   2.
 NSaved= 2 IEnMin= 2 EnMin= -1666.31592064843     IErMin= 2 ErrMin= 2.88D-02
 ErrMax= 2.88D-02  0.00D+00 EMaxC= 1.00D-01 BMatC= 7.73D-01 BMatP= 3.46D+00
 IDIUse=3 WtCom= 7.12D-01 WtEn= 2.88D-01
 Coeff-Com: -0.842D+00 0.184D+01
 Coeff-En:   0.000D+00 0.100D+01
 Coeff:     -0.599D+00 0.160D+01
 Gap=     0.338 Goal=   None    Shift=    0.000
 RMSDP=5.31D-04 MaxDP=2.87D-02 DE=-1.74D-01 OVMax= 6.30D-02

 Cycle   3  Pass 0  IDiag  1:
 RMSU=  3.82D-04    CP:  9.76D-01  1.80D+00
 E= -1666.45351018770     Delta-E=       -0.137589539272 Rises=F Damp=F
 DIIS: error= 6.61D-03 at cycle   3 NSaved=   3.
 NSaved= 3 IEnMin= 3 EnMin= -1666.45351018770     IErMin= 3 ErrMin= 6.61D-03
 ErrMax= 6.61D-03  0.00D+00 EMaxC= 1.00D-01 BMatC= 4.45D-02 BMatP= 7.73D-01
 IDIUse=3 WtCom= 9.34D-01 WtEn= 6.61D-02
 Coeff-Com: -0.402D+00 0.853D+00 0.548D+00
 Coeff-En:   0.000D+00 0.000D+00 0.100D+01
 Coeff:     -0.375D+00 0.797D+00 0.578D+00
 Gap=     0.357 Goal=   None    Shift=    0.000
 RMSDP=2.11D-04 MaxDP=2.03D-02 DE=-1.38D-01 OVMax= 2.98D-02

 Cycle   4  Pass 0  IDiag  1:
 RMSU=  9.04D-05    CP:  9.73D-01  1.98D+00  5.50D-01
 E= -1666.49097379926     Delta-E=       -0.037463611558 Rises=F Damp=F
 DIIS: error= 1.30D-03 at cycle   4 NSaved=   4.
 NSaved= 4 IEnMin= 4 EnMin= -1666.49097379926     IErMin= 4 ErrMin= 1.30D-03
 ErrMax= 1.30D-03  0.00D+00 EMaxC= 1.00D-01 BMatC= 1.42D-03 BMatP= 4.45D-02
 IDIUse=3 WtCom= 9.87D-01 WtEn= 1.30D-02
 Coeff-Com: -0.138D+00 0.293D+00 0.261D+00 0.583D+00
 Coeff-En:   0.000D+00 0.000D+00 0.000D+00 0.100D+01
 Coeff:     -0.136D+00 0.289D+00 0.258D+00 0.589D+00
 Gap=     0.320 Goal=   None    Shift=    0.000
 RMSDP=3.79D-05 MaxDP=3.12D-03 DE=-3.75D-02 OVMax= 6.38D-03

 Cycle   5  Pass 0  IDiag  1:
 RMSU=  2.60D-05    CP:  9.74D-01  1.98D+00  6.08D-01  8.23D-01
 E= -1666.49217678839     Delta-E=       -0.001202989126 Rises=F Damp=F
 DIIS: error= 2.64D-04 at cycle   5 NSaved=   5.
 NSaved= 5 IEnMin= 5 EnMin= -1666.49217678839     IErMin= 5 ErrMin= 2.64D-04
 ErrMax= 2.64D-04  0.00D+00 EMaxC= 1.00D-01 BMatC= 6.74D-05 BMatP= 1.42D-03
 IDIUse=3 WtCom= 9.97D-01 WtEn= 2.64D-03
 Coeff-Com:  0.187D-01-0.397D-01 0.214D-02 0.204D+00 0.815D+00
 Coeff-En:   0.000D+00 0.000D+00 0.000D+00 0.000D+00 0.100D+01
 Coeff:      0.187D-01-0.396D-01 0.213D-02 0.203D+00 0.816D+00
 Gap=     0.320 Goal=   None    Shift=    0.000
 RMSDP=1.53D-05 MaxDP=5.90D-04 DE=-1.20D-03 OVMax= 2.00D-03

 Cycle   6  Pass 0  IDiag  1:
 RMSU=  9.90D-06    CP:  9.74D-01  1.99D+00  6.13D-01  9.38D-01  9.58D-01
 E= -1666.49224187874     Delta-E=       -0.000065090351 Rises=F Damp=F
 DIIS: error= 1.35D-04 at cycle   6 NSaved=   6.
 NSaved= 6 IEnMin= 6 EnMin= -1666.49224187874     IErMin= 6 ErrMin= 1.35D-04
 ErrMax= 1.35D-04  0.00D+00 EMaxC= 1.00D-01 BMatC= 9.06D-06 BMatP= 6.74D-05
 IDIUse=3 WtCom= 9.99D-01 WtEn= 1.35D-03
 Coeff-Com:  0.166D-01-0.354D-01-0.141D-01 0.591D-01 0.379D+00 0.595D+00
 Coeff-En:   0.000D+00 0.000D+00 0.000D+00 0.000D+00 0.000D+00 0.100D+01
 Coeff:      0.166D-01-0.353D-01-0.141D-01 0.590D-01 0.379D+00 0.595D+00
 Gap=     0.320 Goal=   None    Shift=    0.000
 RMSDP=7.41D-06 MaxDP=1.99D-04 DE=-6.51D-05 OVMax= 7.32D-04

 Initial convergence to 1.0D-05 achieved.  Increase integral accuracy.
 Cycle   7  Pass 1  IDiag  1:
 E= -1666.49252819617     Delta-E=       -0.000286317435 Rises=F Damp=F
 DIIS: error= 3.21D-04 at cycle   1 NSaved=   1.
 NSaved= 1 IEnMin= 1 EnMin= -1666.49252819617     IErMin= 1 ErrMin= 3.21D-04
 ErrMax= 3.21D-04  0.00D+00 EMaxC= 1.00D-01 BMatC= 2.15D-05 BMatP= 2.15D-05
 IDIUse=3 WtCom= 9.97D-01 WtEn= 3.21D-03
 Coeff-Com:  0.100D+01
 Coeff-En:   0.100D+01
 Coeff:      0.100D+01
 Gap=     0.320 Goal=   None    Shift=    0.000
 RMSDP=7.41D-06 MaxDP=1.99D-04 DE=-2.86D-04 OVMax= 6.36D-04

 Cycle   8  Pass 1  IDiag  1:
 RMSU=  1.21D-04    CP:  9.99D-01
 E= -1666.49255000242     Delta-E=       -0.000021806244 Rises=F Damp=F
 DIIS: error= 2.77D-05 at cycle   2 NSaved=   2.
 NSaved= 2 IEnMin= 2 EnMin= -1666.49255000242     IErMin= 2 ErrMin= 2.77D-05
 ErrMax= 2.77D-05  0.00D+00 EMaxC= 1.00D-01 BMatC= 5.00D-07 BMatP= 2.15D-05
 IDIUse=1 WtCom= 1.00D+00 WtEn= 0.00D+00
 Coeff-Com: -0.277D-02 0.100D+01
 Coeff:     -0.277D-02 0.100D+01
 Gap=     0.320 Goal=   None    Shift=    0.000
 RMSDP=6.67D-06 MaxDP=2.30D-04 DE=-2.18D-05 OVMax= 2.77D-04

 Cycle   9  Pass 1  IDiag  1:
 RMSU=  2.21D-06    CP:  9.99D-01  1.05D+00
 E= -1666.49254983980     Delta-E=        0.000000162612 Rises=F Damp=F
 DIIS: error= 3.79D-05 at cycle   3 NSaved=   3.
 NSaved= 3 IEnMin= 2 EnMin= -1666.49255000242     IErMin= 2 ErrMin= 2.77D-05
 ErrMax= 3.79D-05  0.00D+00 EMaxC= 1.00D-01 BMatC= 7.24D-07 BMatP= 5.00D-07
 IDIUse=1 WtCom= 1.00D+00 WtEn= 0.00D+00
 Coeff-Com: -0.243D-01 0.562D+00 0.462D+00
 Coeff:     -0.243D-01 0.562D+00 0.462D+00
 Gap=     0.320 Goal=   None    Shift=    0.000
 RMSDP=9.71D-07 MaxDP=4.32D-05 DE= 1.63D-07 OVMax= 1.33D-04

 Cycle  10  Pass 1  IDiag  1:
 RMSU=  6.99D-07    CP:  9.99D-01  1.05D+00  7.32D-01
 E= -1666.49255059499     Delta-E=       -0.000000755183 Rises=F Damp=F
 DIIS: error= 3.99D-06 at cycle   4 NSaved=   4.
 NSaved= 4 IEnMin= 4 EnMin= -1666.49255059499     IErMin= 4 ErrMin= 3.99D-06
 ErrMax= 3.99D-06  0.00D+00 EMaxC= 1.00D-01 BMatC= 4.79D-09 BMatP= 5.00D-07
 IDIUse=1 WtCom= 1.00D+00 WtEn= 0.00D+00
 Coeff-Com: -0.612D-02 0.119D+00 0.119D+00 0.768D+00
 Coeff:     -0.612D-02 0.119D+00 0.119D+00 0.768D+00
 Gap=     0.320 Goal=   None    Shift=    0.000
 RMSDP=1.47D-07 MaxDP=6.58D-06 DE=-7.55D-07 OVMax= 2.65D-05

 Cycle  11  Pass 1  IDiag  1:
 RMSU=  9.87D-08    CP:  9.99D-01  1.06D+00  7.66D-01  1.04D+00
 E= -1666.49255060159     Delta-E=       -0.000000006599 Rises=F Damp=F
 DIIS: error= 1.19D-06 at cycle   5 NSaved=   5.
 NSaved= 5 IEnMin= 5 EnMin= -1666.49255060159     IErMin= 5 ErrMin= 1.19D-06
 ErrMax= 1.19D-06  0.00D+00 EMaxC= 1.00D-01 BMatC= 1.95D-09 BMatP= 4.79D-09
 IDIUse=1 WtCom= 1.00D+00 WtEn= 0.00D+00
 Coeff-Com:  0.339D-02-0.883D-01-0.604D-01 0.376D+00 0.770D+00
 Coeff:      0.339D-02-0.883D-01-0.604D-01 0.376D+00 0.770D+00
 Gap=     0.320 Goal=   None    Shift=    0.000
 RMSDP=9.03D-08 MaxDP=3.76D-06 DE=-6.60D-09 OVMax= 1.63D-05

 Cycle  12  Pass 1  IDiag  1:
 RMSU=  6.02D-08    CP:  9.99D-01  1.06D+00  7.79D-01  1.11D+00  1.12D+00
 E= -1666.49255060421     Delta-E=       -0.000000002619 Rises=F Damp=F
 DIIS: error= 3.51D-07 at cycle   6 NSaved=   6.
 NSaved= 6 IEnMin= 6 EnMin= -1666.49255060421     IErMin= 6 ErrMin= 3.51D-07
 ErrMax= 3.51D-07  0.00D+00 EMaxC= 1.00D-01 BMatC= 1.05D-10 BMatP= 1.95D-09
 IDIUse=1 WtCom= 1.00D+00 WtEn= 0.00D+00
 Coeff-Com:  0.161D-02-0.388D-01-0.291D-01 0.625D-01 0.217D+00 0.786D+00
 Coeff:      0.161D-02-0.388D-01-0.291D-01 0.625D-01 0.217D+00 0.786D+00
 Gap=     0.320 Goal=   None    Shift=    0.000
 RMSDP=2.19D-08 MaxDP=9.96D-07 DE=-2.62D-09 OVMax= 4.68D-06

 Cycle  13  Pass 1  IDiag  1:
 RMSU=  1.52D-08    CP:  9.99D-01  1.06D+00  7.79D-01  1.11D+00  1.24D+00
                    CP:  1.15D+00
 E= -1666.49255060448     Delta-E=       -0.000000000270 Rises=F Damp=F
 DIIS: error= 1.86D-07 at cycle   7 NSaved=   7.
 NSaved= 7 IEnMin= 7 EnMin= -1666.49255060448     IErMin= 7 ErrMin= 1.86D-07
 ErrMax= 1.86D-07  0.00D+00 EMaxC= 1.00D-01 BMatC= 2.14D-11 BMatP= 1.05D-10
 IDIUse=1 WtCom= 1.00D+00 WtEn= 0.00D+00
 Coeff-Com: -0.202D-03 0.650D-02 0.403D-02-0.583D-01-0.111D+00 0.298D+00
 Coeff-Com:  0.861D+00
 Coeff:     -0.202D-03 0.650D-02 0.403D-02-0.583D-01-0.111D+00 0.298D+00
 Coeff:      0.861D+00
 Gap=     0.320 Goal=   None    Shift=    0.000
 RMSDP=1.31D-08 MaxDP=6.24D-07 DE=-2.70D-10 OVMax= 2.90D-06

 Cycle  14  Pass 1  IDiag  1:
 RMSU=  5.89D-09    CP:  9.99D-01  1.06D+00  7.78D-01  1.11D+00  1.28D+00
                    CP:  1.28D+00  1.15D+00
 E= -1666.49255060459     Delta-E=       -0.000000000109 Rises=F Damp=F
 DIIS: error= 2.28D-08 at cycle   8 NSaved=   8.
 NSaved= 8 IEnMin= 8 EnMin= -1666.49255060459     IErMin= 8 ErrMin= 2.28D-08
 ErrMax= 2.28D-08  0.00D+00 EMaxC= 1.00D-01 BMatC= 9.68D-13 BMatP= 2.14D-11
 IDIUse=1 WtCom= 1.00D+00 WtEn= 0.00D+00
 Coeff-Com: -0.120D-03 0.319D-02 0.233D-02-0.126D-01-0.354D-01 0.794D-02
 Coeff-Com:  0.178D+00 0.856D+00
 Coeff:     -0.120D-03 0.319D-02 0.233D-02-0.126D-01-0.354D-01 0.794D-02
 Coeff:      0.178D+00 0.856D+00
 Gap=     0.320 Goal=   None    Shift=    0.000
 RMSDP=2.49D-09 MaxDP=1.11D-07 DE=-1.09D-10 OVMax= 3.97D-07

 SCF Done:  E(RwB97XD) =  -1666.49255060     A.U. after   14 cycles
            NFock= 14  Conv=0.25D-08     -V/T= 2.0040
 KE= 1.659876413199D+03 PE=-1.184028393447D+04 EE= 4.528020152468D+03
 Leave Link  502 at Tue Jun 15 15:22:56 2021, MaxMem=  7864320000 cpu:            2103.3 elap:            2103.3
 (Enter /sw/linux/gaussian/g16/g16/l601.exe)
 Copying SCF densities to generalized density rwf, IOpCl= 0 IROHF=0.

 **********************************************************************

            Population analysis using the SCF Density.

 **********************************************************************

 Alpha  occ. eigenvalues --  -14.42809 -14.42809 -14.42808 -10.32366 -10.32366
 Alpha  occ. eigenvalues --  -10.32366 -10.32357 -10.32356 -10.32356 -10.32265
 Alpha  occ. eigenvalues --  -10.32265 -10.32264 -10.31485 -10.31485 -10.31485
 Alpha  occ. eigenvalues --  -10.31458 -10.31458 -10.31456 -10.31420 -10.31419
 Alpha  occ. eigenvalues --  -10.31418 -10.30287 -10.30286 -10.30286 -10.30259
 Alpha  occ. eigenvalues --  -10.30259 -10.30258 -10.30198 -10.30198 -10.30197
 Alpha  occ. eigenvalues --  -10.30148 -10.30147 -10.30146 -10.30114 -10.30113
 Alpha  occ. eigenvalues --  -10.30111 -10.29980 -10.29980 -10.29980 -10.29968
 Alpha  occ. eigenvalues --  -10.29968 -10.29967  -1.05295  -1.05295  -1.05294
 Alpha  occ. eigenvalues --   -1.00273  -0.98868  -0.98867  -0.97275  -0.93462
 Alpha  occ. eigenvalues --   -0.93461  -0.92650  -0.90043  -0.90042  -0.87082
 Alpha  occ. eigenvalues --   -0.86955  -0.86955  -0.86210  -0.85926  -0.85925
 Alpha  occ. eigenvalues --   -0.85691  -0.83435  -0.83434  -0.75613  -0.75610
 Alpha  occ. eigenvalues --   -0.74971  -0.74297  -0.74296  -0.74208  -0.72912
 Alpha  occ. eigenvalues --   -0.72911  -0.71634  -0.69959  -0.69957  -0.69827
 Alpha  occ. eigenvalues --   -0.67257  -0.67255  -0.65043  -0.62779  -0.62778
 Alpha  occ. eigenvalues --   -0.60877  -0.59572  -0.59571  -0.59495  -0.59063
 Alpha  occ. eigenvalues --   -0.58641  -0.58640  -0.57585  -0.57269  -0.56755
 Alpha  occ. eigenvalues --   -0.56754  -0.55658  -0.55408  -0.55407  -0.54550
 Alpha  occ. eigenvalues --   -0.54156  -0.54155  -0.52858  -0.52454  -0.52453
 Alpha  occ. eigenvalues --   -0.51911  -0.51837  -0.51836  -0.50600  -0.50600
 Alpha  occ. eigenvalues --   -0.50598  -0.49808  -0.49808  -0.49715  -0.48538
 Alpha  occ. eigenvalues --   -0.47890  -0.47888  -0.46992  -0.46988  -0.46383
 Alpha  occ. eigenvalues --   -0.46001  -0.45353  -0.45353  -0.44719  -0.44269
 Alpha  occ. eigenvalues --   -0.44268  -0.43859  -0.42854  -0.42849  -0.39400
 Alpha  occ. eigenvalues --   -0.39398  -0.38683  -0.37133  -0.37128  -0.34775
 Alpha  occ. eigenvalues --   -0.34774  -0.34774  -0.34552  -0.34421  -0.34421
 Alpha  occ. eigenvalues --   -0.33995  -0.33201  -0.33200  -0.32686  -0.31321
 Alpha  occ. eigenvalues --   -0.31316
 Alpha virt. eigenvalues --    0.00709   0.00713   0.01199   0.01985   0.01992
 Alpha virt. eigenvalues --    0.04319   0.04808   0.04808   0.04835   0.06548
 Alpha virt. eigenvalues --    0.06553   0.07301   0.08651   0.08661   0.11482
 Alpha virt. eigenvalues --    0.12267   0.12268   0.13298   0.13300   0.13415
 Alpha virt. eigenvalues --    0.13574   0.14417   0.14418   0.15387   0.15391
 Alpha virt. eigenvalues --    0.15542   0.16317   0.17304   0.17306   0.18304
 Alpha virt. eigenvalues --    0.18341   0.18342   0.19217   0.19587   0.19589
 Alpha virt. eigenvalues --    0.20089   0.20791   0.20892   0.20895   0.21582
 Alpha virt. eigenvalues --    0.21941   0.21944   0.22952   0.22953   0.23407
 Alpha virt. eigenvalues --    0.25114   0.25722   0.25735   0.26841   0.26851
 Alpha virt. eigenvalues --    0.26852   0.29819   0.29822   0.29840   0.31216
 Alpha virt. eigenvalues --    0.31388   0.31390   0.32355   0.32359   0.33090
 Alpha virt. eigenvalues --    0.33997   0.34005   0.34468   0.34469   0.34654
 Alpha virt. eigenvalues --    0.35218   0.35675   0.35677   0.36365   0.36933
 Alpha virt. eigenvalues --    0.36938   0.37223   0.37702   0.37703   0.38021
 Alpha virt. eigenvalues --    0.38214   0.38217   0.38753   0.39468   0.39471
 Alpha virt. eigenvalues --    0.39944   0.41321   0.41911   0.41912   0.42395
 Alpha virt. eigenvalues --    0.43140   0.43141   0.43661   0.44295   0.44298
 Alpha virt. eigenvalues --    0.44835   0.45130   0.45133   0.45137   0.45499
 Alpha virt. eigenvalues --    0.45501   0.46253   0.46495   0.46498   0.46655
 Alpha virt. eigenvalues --    0.46843   0.46844   0.46990   0.46990   0.47391
 Alpha virt. eigenvalues --    0.47863   0.48196   0.48198   0.48874   0.49320
 Alpha virt. eigenvalues --    0.49324   0.49710   0.49836   0.49839   0.50503
 Alpha virt. eigenvalues --    0.50655   0.50656   0.50756   0.50892   0.50895
 Alpha virt. eigenvalues --    0.51099   0.51775   0.51775   0.51922   0.52503
 Alpha virt. eigenvalues --    0.52506   0.52917   0.53596   0.53598   0.54061
 Alpha virt. eigenvalues --    0.54067   0.54076   0.54435   0.55136   0.55140
 Alpha virt. eigenvalues --    0.55822   0.56504   0.56508   0.57454   0.58516
 Alpha virt. eigenvalues --    0.58520   0.59081   0.59110   0.59113   0.60357
 Alpha virt. eigenvalues --    0.60965   0.60969   0.61245   0.61640   0.61671
 Alpha virt. eigenvalues --    0.61677   0.62337   0.62628   0.62631   0.63081
 Alpha virt. eigenvalues --    0.63083   0.63418   0.63424   0.63928   0.64399
 Alpha virt. eigenvalues --    0.64407   0.65337   0.65771   0.65776   0.65842
 Alpha virt. eigenvalues --    0.66469   0.66771   0.66774   0.67077   0.67333
 Alpha virt. eigenvalues --    0.67337   0.67670   0.68407   0.68409   0.68630
 Alpha virt. eigenvalues --    0.69270   0.69581   0.69582   0.70110   0.70328
 Alpha virt. eigenvalues --    0.70331   0.70557   0.70650   0.70652   0.71494
 Alpha virt. eigenvalues --    0.71634   0.71642   0.71985   0.72185   0.72186
 Alpha virt. eigenvalues --    0.73142   0.73147   0.73421   0.73979   0.73984
 Alpha virt. eigenvalues --    0.74572   0.74877   0.74888   0.74901   0.76795
 Alpha virt. eigenvalues --    0.76798   0.77275   0.78652   0.78659   0.78692
 Alpha virt. eigenvalues --    0.79205   0.79385   0.79388   0.80666   0.81169
 Alpha virt. eigenvalues --    0.81173   0.83499   0.83627   0.83635   0.84133
 Alpha virt. eigenvalues --    0.84137   0.84305   0.85045   0.85048   0.85167
 Alpha virt. eigenvalues --    0.86053   0.86123   0.86126   0.86646   0.86648
 Alpha virt. eigenvalues --    0.87058   0.87168   0.88099   0.88103   0.89607
 Alpha virt. eigenvalues --    0.89613   0.89969   0.90652   0.90716   0.90718
 Alpha virt. eigenvalues --    0.91227   0.91228   0.91248   0.92251   0.92360
 Alpha virt. eigenvalues --    0.92372   0.93745   0.94578   0.94585   0.95386
 Alpha virt. eigenvalues --    0.95391   0.95623   0.96214   0.96225   0.96629
 Alpha virt. eigenvalues --    0.97487   0.97495   0.97863   0.99251   0.99275
 Alpha virt. eigenvalues --    0.99790   1.00741   1.01540   1.01546   1.02672
 Alpha virt. eigenvalues --    1.02879   1.02894   1.04755   1.04756   1.06217
 Alpha virt. eigenvalues --    1.06226   1.06298   1.07597   1.07604   1.07655
 Alpha virt. eigenvalues --    1.07842   1.09087   1.09095   1.10193   1.10496
 Alpha virt. eigenvalues --    1.10510   1.12674   1.12753   1.12764   1.13646
 Alpha virt. eigenvalues --    1.14193   1.14195   1.14207   1.15534   1.15535
 Alpha virt. eigenvalues --    1.15581   1.15781   1.16053   1.16055   1.17251
 Alpha virt. eigenvalues --    1.17600   1.17604   1.18599   1.19249   1.19252
 Alpha virt. eigenvalues --    1.20195   1.20204   1.21219   1.21810   1.22039
 Alpha virt. eigenvalues --    1.22042   1.22445   1.22713   1.22721   1.24224
 Alpha virt. eigenvalues --    1.24225   1.25672   1.25675   1.28184   1.28315
 Alpha virt. eigenvalues --    1.28316   1.30572   1.32849   1.33157   1.33812
 Alpha virt. eigenvalues --    1.33814   1.36610   1.36610   1.36763   1.37207
 Alpha virt. eigenvalues --    1.38079   1.38081   1.39260   1.39262   1.40620
 Alpha virt. eigenvalues --    1.42286   1.44302   1.46813   1.46821   1.48297
 Alpha virt. eigenvalues --    1.48892   1.48900   1.49551   1.49564   1.51374
 Alpha virt. eigenvalues --    1.51383   1.51390   1.51971   1.51973   1.52923
 Alpha virt. eigenvalues --    1.53146   1.53146   1.53699   1.55374   1.55380
 Alpha virt. eigenvalues --    1.55436   1.55670   1.55676   1.56443   1.56661
 Alpha virt. eigenvalues --    1.57098   1.57099   1.57393   1.57808   1.57813
 Alpha virt. eigenvalues --    1.59434   1.59685   1.59688   1.60194   1.60195
 Alpha virt. eigenvalues --    1.60444   1.61794   1.61799   1.62000   1.63768
 Alpha virt. eigenvalues --    1.63772   1.63981   1.64637   1.64639   1.65380
 Alpha virt. eigenvalues --    1.65725   1.65860   1.65869   1.66666   1.66673
 Alpha virt. eigenvalues --    1.67050   1.67483   1.67489   1.67765   1.69169
 Alpha virt. eigenvalues --    1.70244   1.70247   1.70880   1.70881   1.70987
 Alpha virt. eigenvalues --    1.71624   1.72975   1.72979   1.74448   1.74456
 Alpha virt. eigenvalues --    1.76127   1.76884   1.77231   1.77237   1.77443
 Alpha virt. eigenvalues --    1.77444   1.77686   1.78045   1.78048   1.78771
 Alpha virt. eigenvalues --    1.78801   1.78803   1.80060   1.80079   1.80195
 Alpha virt. eigenvalues --    1.80443   1.81866   1.81874   1.82513   1.83141
 Alpha virt. eigenvalues --    1.83241   1.83247   1.84223   1.84224   1.84371
 Alpha virt. eigenvalues --    1.85542   1.85546   1.85618   1.85676   1.85677
 Alpha virt. eigenvalues --    1.86133   1.88601   1.88606   1.90711   1.91228
 Alpha virt. eigenvalues --    1.91234   1.93906   1.93913   1.94481   1.95383
 Alpha virt. eigenvalues --    1.95716   1.95726   1.97249   1.97263   1.97884
 Alpha virt. eigenvalues --    1.98083   1.98089   1.98835   2.00019   2.00020
 Alpha virt. eigenvalues --    2.00044   2.00891   2.00983   2.00987   2.01420
 Alpha virt. eigenvalues --    2.01965   2.01977   2.02797   2.02805   2.03067
 Alpha virt. eigenvalues --    2.03557   2.03560   2.04027   2.04031   2.04806
 Alpha virt. eigenvalues --    2.05587   2.05867   2.05877   2.07221   2.07537
 Alpha virt. eigenvalues --    2.07544   2.08062   2.08391   2.08398   2.08654
 Alpha virt. eigenvalues --    2.08659   2.09370   2.09783   2.09789   2.10251
 Alpha virt. eigenvalues --    2.10751   2.12905   2.12917   2.14723   2.14728
 Alpha virt. eigenvalues --    2.15425   2.17478   2.17553   2.17555   2.17935
 Alpha virt. eigenvalues --    2.18634   2.18643   2.19589   2.19590   2.21740
 Alpha virt. eigenvalues --    2.22799   2.22805   2.23537   2.25706   2.25708
 Alpha virt. eigenvalues --    2.25713   2.26459   2.26466   2.30818   2.31372
 Alpha virt. eigenvalues --    2.31377   2.32132   2.33899   2.33903   2.34680
 Alpha virt. eigenvalues --    2.34684   2.35046   2.36021   2.39604   2.39606
 Alpha virt. eigenvalues --    2.40082   2.41596   2.42225   2.42227   2.42451
 Alpha virt. eigenvalues --    2.42859   2.42862   2.43012   2.43475   2.43547
 Alpha virt. eigenvalues --    2.43550   2.46644   2.46653   2.47247   2.47251
 Alpha virt. eigenvalues --    2.49165   2.49475   2.49491   2.50000   2.52026
 Alpha virt. eigenvalues --    2.52367   2.52375   2.53246   2.53256   2.53557
 Alpha virt. eigenvalues --    2.59019   2.59034   2.59742   2.60721   2.60732
 Alpha virt. eigenvalues --    2.62280   2.64191   2.64192   2.64262   2.64710
 Alpha virt. eigenvalues --    2.64732   2.64733   2.68037   2.68088   2.68090
 Alpha virt. eigenvalues --    2.68747   2.68768   2.69315   2.70053   2.70067
 Alpha virt. eigenvalues --    2.70124   2.70412   2.70719   2.70728   2.71357
 Alpha virt. eigenvalues --    2.71663   2.71664   2.72099   2.72306   2.72307
 Alpha virt. eigenvalues --    2.72577   2.72946   2.72953   2.73531   2.74200
 Alpha virt. eigenvalues --    2.74207   2.74393   2.74579   2.74580   2.74734
 Alpha virt. eigenvalues --    2.75432   2.76245   2.76249   2.76465   2.78953
 Alpha virt. eigenvalues --    2.78958   2.79191   2.79201   2.79304   2.80755
 Alpha virt. eigenvalues --    2.80761   2.80896   2.81416   2.82683   2.82690
 Alpha virt. eigenvalues --    2.83116   2.83121   2.83894   2.84572   2.84585
 Alpha virt. eigenvalues --    2.86865   2.86875   2.87211   2.88165   2.88220
 Alpha virt. eigenvalues --    2.88235   2.88397   2.89287   2.89298   2.90460
 Alpha virt. eigenvalues --    2.90469   2.90819   2.92693   2.92704   2.93798
 Alpha virt. eigenvalues --    2.95248   2.95267   2.95278   2.97767   2.97768
 Alpha virt. eigenvalues --    2.97796   2.98092   2.98099   2.98130   3.00068
 Alpha virt. eigenvalues --    3.00075   3.01235   3.01542   3.01544   3.01934
 Alpha virt. eigenvalues --    3.03276   3.03279   3.04687   3.05142   3.05143
 Alpha virt. eigenvalues --    3.05147   3.06987   3.06988   3.09752   3.11186
 Alpha virt. eigenvalues --    3.11194   3.11737   3.11751   3.14224   3.14672
 Alpha virt. eigenvalues --    3.16289   3.16302   3.16879   3.18503   3.18508
 Alpha virt. eigenvalues --    3.22696   3.26630   3.27990   3.29015   3.29018
 Alpha virt. eigenvalues --    3.30030   3.30040   3.30958   3.31663   3.31664
 Alpha virt. eigenvalues --    3.31966   3.33856   3.33864   3.35392   3.41406
 Alpha virt. eigenvalues --    3.41408   3.41573   3.45764   3.45806   3.45808
 Alpha virt. eigenvalues --    3.46999   3.47001   3.49122   3.49255   3.49260
 Alpha virt. eigenvalues --    3.52076   3.52207   3.52210   3.54721   3.55030
 Alpha virt. eigenvalues --    3.55031   3.57948   3.57953   3.58114   3.60404
 Alpha virt. eigenvalues --    3.67654   3.67657   3.68305   3.68726   3.68728
 Alpha virt. eigenvalues --    3.69307   3.70224   3.70238   3.71560   3.71593
 Alpha virt. eigenvalues --    3.71595   3.72421   3.78814   3.78825   3.79898
 Alpha virt. eigenvalues --    3.80327   3.80331   3.81868   3.83774   3.83782
 Alpha virt. eigenvalues --    3.86108   3.95335   3.95335   3.95337   4.07782
 Alpha virt. eigenvalues --    4.07785   4.07786   4.10266   4.10267   4.10457
 Alpha virt. eigenvalues --    4.15113   4.15113   4.15206   4.19664   4.19671
 Alpha virt. eigenvalues --    4.21366   4.21608   4.21611   4.22866   4.25259
 Alpha virt. eigenvalues --    4.25286   4.43131   4.43140   4.43144   4.47790
 Alpha virt. eigenvalues --    4.47826   4.47827   4.49427   4.57412   4.57424
 Alpha virt. eigenvalues --    4.64685   4.79026   4.79055   4.91321   4.93331
 Alpha virt. eigenvalues --    4.93333   4.96011   5.32605   5.32608   5.32608
 Alpha virt. eigenvalues --   23.60170  23.69172  23.69175  23.76655  23.82115
 Alpha virt. eigenvalues --   23.82136  23.82140  24.02092  24.02095  24.02436
 Alpha virt. eigenvalues --   24.02574  24.02575  24.03911  24.04654  24.04658
 Alpha virt. eigenvalues --   24.05348  24.07289  24.07303  24.11378  24.11457
 Alpha virt. eigenvalues --   24.11457  24.18611  24.18618  24.19417  24.21006
 Alpha virt. eigenvalues --   24.21010  24.21584  24.22885  24.22886  24.22900
 Alpha virt. eigenvalues --   24.23307  24.23325  24.26030  24.26092  24.26095
 Alpha virt. eigenvalues --   24.29486  24.31889  24.31892  24.32810  35.77215
 Alpha virt. eigenvalues --   35.77250  35.77252
          Condensed to atoms (all electrons):
 Mulliken charges:
               1
     1  C   -0.066459
     2  C   -0.052502
     3  C   -0.066530
     4  C   -0.052488
     5  C   -0.066490
     6  C   -0.052779
     7  H    0.123299
     8  H    0.123268
     9  H    0.123305
    10  C   -0.081599
    11  C   -0.066281
    12  C   -0.064091
    13  C   -0.050935
    14  C   -0.080955
    15  C   -0.104709
    16  H    0.118751
    17  H    0.125029
    18  H    0.117654
    19  H    0.113245
    20  C   -0.191067
    21  C    0.030006
    22  C   -0.190829
    23  C    0.069203
    24  N   -0.304906
    25  C    0.069176
    26  H    0.119059
    27  H    0.121069
    28  H    0.124203
    29  H    0.123791
    30  C   -0.081655
    31  C   -0.066213
    32  C   -0.064188
    33  C   -0.050800
    34  C   -0.081079
    35  C   -0.104684
    36  H    0.118725
    37  H    0.125103
    38  H    0.117660
    39  H    0.113257
    40  C   -0.191014
    41  C    0.030024
    42  C   -0.190888
    43  C    0.069169
    44  N   -0.304879
    45  C    0.069151
    46  H    0.119058
    47  H    0.121075
    48  H    0.124203
    49  H    0.123790
    50  C   -0.081496
    51  C   -0.066577
    52  C   -0.064175
    53  C   -0.050716
    54  C   -0.081057
    55  C   -0.104665
    56  H    0.118713
    57  H    0.125095
    58  H    0.117663
    59  H    0.113260
    60  C   -0.191094
    61  C    0.030120
    62  C   -0.190868
    63  C    0.069166
    64  N   -0.304899
    65  C    0.069167
    66  H    0.119044
    67  H    0.121086
    68  H    0.124194
    69  H    0.123785
 Sum of Mulliken charges =   0.00000
 Mulliken charges with hydrogens summed into heavy atoms:
               1
     1  C    0.056840
     2  C   -0.052502
     3  C    0.056739
     4  C   -0.052488
     5  C    0.056815
     6  C   -0.052779
    10  C    0.037152
    11  C   -0.066281
    12  C    0.060938
    13  C   -0.050935
    14  C    0.036699
    15  C    0.008537
    20  C   -0.072008
    21  C    0.030006
    22  C   -0.069760
    23  C    0.193406
    24  N   -0.304906
    25  C    0.192967
    30  C    0.037070
    31  C   -0.066213
    32  C    0.060915
    33  C   -0.050800
    34  C    0.036581
    35  C    0.008572
    40  C   -0.071955
    41  C    0.030024
    42  C   -0.069813
    43  C    0.193372
    44  N   -0.304879
    45  C    0.192941
    50  C    0.037217
    51  C   -0.066577
    52  C    0.060919
    53  C   -0.050716
    54  C    0.036606
    55  C    0.008594
    60  C   -0.072050
    61  C    0.030120
    62  C   -0.069782
    63  C    0.193360
    64  N   -0.304899
    65  C    0.192952
 Electronic spatial extent (au):  <R**2>=          37948.9123
 Charge=              0.0000 electrons
 Dipole moment (field-independent basis, Debye):
    X=              0.0029    Y=              0.0074    Z=              4.6271  Tot=              4.6271
 Quadrupole moment (field-independent basis, Debye-Ang):
   XX=           -259.3417   YY=           -259.2883   ZZ=           -250.4993
   XY=             -0.1163   XZ=              2.8821   YZ=              7.2562
 Traceless Quadrupole moment (field-independent basis, Debye-Ang):
   XX=             -2.9653   YY=             -2.9118   ZZ=              5.8771
   XY=             -0.1163   XZ=              2.8821   YZ=              7.2562
 Octapole moment (field-independent basis, Debye-Ang**2):
  XXX=           -599.4348  YYY=          -1060.9321  ZZZ=            701.1659  XYY=            -64.2944
  XXY=           -554.1828  XXZ=            504.4556  XZZ=           -159.6064  YZZ=           -390.9451
  YYZ=            513.4882  XYZ=              4.6363
 Hexadecapole moment (field-independent basis, Debye-Ang**3):
 XXXX=         -24495.0088 YYYY=         -26425.0870 ZZZZ=          -4775.4294 XXXY=          -1242.3866
 XXXZ=            847.0148 YYYX=           -223.5526 YYYZ=           1446.9142 ZZZX=            436.3564
 ZZZY=           1100.3563 XXYY=          -8934.5219 XXZZ=          -5534.0882 YYZZ=          -6037.2652
 XXYZ=           1711.9643 YYXZ=            433.8973 ZZXY=           -251.4801
 N-N= 3.985894818199D+03 E-N=-1.184028394150D+04  KE= 1.659876413199D+03
 No NMR shielding tensors so no spin-rotation constants.
 Leave Link  601 at Tue Jun 15 15:22:57 2021, MaxMem=  7864320000 cpu:               0.8 elap:               0.8
 (Enter /sw/linux/gaussian/g16/g16/l602.exe)
 FitSet:  NAtFit=    69 NAtPot=    69 NAtFrz=     0 MDM=    73 TotChg=   0.00000
 Merz-Kollman atomic radii used.

 **********************************************************************

            Electrostatic Properties Using The SCF Density.

 **********************************************************************

       Atomic Center    1 is at  -0.068480  0.368610  0.128040
       Atomic Center    2 is at   1.325020  0.336990  0.126880
       Atomic Center    3 is at   2.026160  1.541680  0.126090
       Atomic Center    4 is at   1.356820  2.764310  0.125520
       Atomic Center    5 is at  -0.037010  2.769170  0.125930
       Atomic Center    6 is at  -0.761070  1.578190  0.127060
       Atomic Center    7 is at  -0.623450 -0.563420  0.129980
       Atomic Center    8 is at   3.110810  1.527180  0.126330
       Atomic Center    9 is at  -0.566920  3.715680  0.125910
       Atomic Center   10 is at   1.724760  5.104640  0.939560
       Atomic Center   11 is at   2.114610  4.041090  0.123660
       Atomic Center   12 is at   3.235040  4.198020 -0.691240
       Atomic Center   13 is at   3.966170  5.385090 -0.700460
       Atomic Center   14 is at   3.559250  6.434410  0.124780
       Atomic Center   15 is at   2.443310  6.291700  0.936760
       Atomic Center   16 is at   0.867620  4.992370  1.594140
       Atomic Center   17 is at   3.544930  3.378240 -1.330830
       Atomic Center   18 is at   4.104900  7.371270  0.112400
       Atomic Center   19 is at   2.131720  7.111640  1.573560
       Atomic Center   20 is at   6.314140  6.158090 -1.135600
       Atomic Center   21 is at   5.151350  5.529410 -1.579680
       Atomic Center   22 is at   5.154510  5.042340 -2.886340
       Atomic Center   23 is at   6.291290  5.202580 -3.666290
       Atomic Center   24 is at   7.403690  5.801860 -3.245120
       Atomic Center   25 is at   7.397080  6.266240 -1.996830
       Atomic Center   26 is at   6.385680  6.540210 -0.123860
       Atomic Center   27 is at   4.275390  4.563360 -3.301610
       Atomic Center   28 is at   6.306100  4.833490 -4.688060
       Atomic Center   29 is at   8.311760  6.748040 -1.662530
       Atomic Center   30 is at   3.167780 -1.152910  0.940150
       Atomic Center   31 is at   2.051390 -0.957920  0.125030
       Atomic Center   32 is at   1.625600 -2.006410 -0.689530
       Atomic Center   33 is at   2.286820 -3.233760 -0.698920
       Atomic Center   34 is at   3.399440 -3.406920  0.125580
       Atomic Center   35 is at   3.835430 -2.369390  0.937040
       Atomic Center   36 is at   3.500270 -0.354620  1.594340
       Atomic Center   37 is at   0.760520 -1.864240 -1.328720
       Atomic Center   38 is at   3.937080 -4.348400  0.113030
       Atomic Center   39 is at   4.701620 -2.510200  1.573270
       Atomic Center   40 is at   1.779480 -5.653290 -1.132440
       Atomic Center   41 is at   1.817090 -4.332190 -1.577140
       Atomic Center   42 is at   1.391940 -4.091560 -2.883210
       Atomic Center   43 is at   0.959820 -5.156060 -3.661940
       Atomic Center   44 is at   0.921950 -6.418850 -3.240170
       Atomic Center   45 is at   1.329280 -6.645190 -1.992460
       Atomic Center   46 is at   2.075850 -5.906140 -0.121010
       Atomic Center   47 is at   1.417040 -3.090950 -3.298970
       Atomic Center   48 is at   0.631240 -4.984430 -4.683240
       Atomic Center   49 is at   1.288670 -7.678030 -1.657620
       Atomic Center   50 is at  -2.971960  0.731900  0.946840
       Atomic Center   51 is at  -2.245680  1.596500  0.126010
       Atomic Center   52 is at  -2.941490  2.484500 -0.693300
       Atomic Center   53 is at  -4.335060  2.525030 -0.702060
       Atomic Center   54 is at  -5.040590  1.653090  0.128390
       Atomic Center   55 is at  -4.359280  0.761840  0.944790
       Atomic Center   56 is at  -2.446180  0.048740  1.604570
       Atomic Center   57 is at  -2.386250  3.158930 -1.336750
       Atomic Center   58 is at  -6.124770  1.658040  0.116570
       Atomic Center   59 is at  -4.913730  0.085930  1.585590
       Atomic Center   60 is at  -6.178240  4.169830 -1.146420
       Atomic Center   61 is at  -5.052250  3.474790 -1.586390
       Atomic Center   62 is at  -4.631400  3.714220 -2.894120
       Atomic Center   63 is at  -5.338100  4.614640 -3.679020
       Atomic Center   64 is at  -6.413400  5.280660 -3.261800
       Atomic Center   65 is at  -6.812890  5.049210 -2.012500
       Atomic Center   66 is at  -6.545420  4.045940 -0.134200
       Atomic Center   67 is at  -3.776880  3.190170 -3.306280
       Atomic Center   68 is at  -5.025370  4.806730 -4.701660
       Atomic Center   69 is at  -7.687590  5.602270 -1.681500
    2793 points will be used for fitting atomic charges
 Fitting point charges to electrostatic potential
 Charges from ESP fit, RMS=   0.00173 RRMS=   0.14645:
 ESP charges:
               1
     1  C   -0.138022
     2  C   -0.001419
     3  C   -0.137983
     4  C    0.020270
     5  C   -0.145341
     6  C    0.000891
     7  H    0.117471
     8  H    0.118181
     9  H    0.120009
    10  C   -0.145493
    11  C    0.054808
    12  C   -0.150564
    13  C   -0.017265
    14  C   -0.188058
    15  C   -0.126773
    16  H    0.128743
    17  H    0.119180
    18  H    0.147924
    19  H    0.139821
    20  C   -0.617966
    21  C    0.481415
    22  C   -0.565967
    23  C    0.461821
    24  N   -0.667312
    25  C    0.495896
    26  H    0.204350
    27  H    0.187150
    28  H    0.036712
    29  H    0.027520
    30  C   -0.152114
    31  C    0.086471
    32  C   -0.171082
    33  C   -0.044269
    34  C   -0.176142
    35  C   -0.123053
    36  H    0.127966
    37  H    0.127343
    38  H    0.143405
    39  H    0.138315
    40  C   -0.626253
    41  C    0.521633
    42  C   -0.589844
    43  C    0.463024
    44  N   -0.667708
    45  C    0.498983
    46  H    0.204197
    47  H    0.194842
    48  H    0.037377
    49  H    0.026409
    50  C   -0.166688
    51  C    0.098841
    52  C   -0.196077
    53  C    0.011302
    54  C   -0.201276
    55  C   -0.116333
    56  H    0.131860
    57  H    0.130956
    58  H    0.147668
    59  H    0.139422
    60  C   -0.649033
    61  C    0.503337
    62  C   -0.609832
    63  C    0.495671
    64  N   -0.689005
    65  C    0.538701
    66  H    0.208074
    67  H    0.198211
    68  H    0.029253
    69  H    0.015452
 Sum of ESP charges =   0.00000
 ESP charges with hydrogens summed into heavy atoms:
               1
     1  C   -0.020551
     2  C   -0.001419
     3  C   -0.019802
     4  C    0.020270
     5  C   -0.025331
     6  C    0.000891
    10  C   -0.016750
    11  C    0.054808
    12  C   -0.031384
    13  C   -0.017265
    14  C   -0.040134
    15  C    0.013047
    20  C   -0.413616
    21  C    0.481415
    22  C   -0.378817
    23  C    0.498534
    24  N   -0.667312
    25  C    0.523416
    30  C   -0.024148
    31  C    0.086471
    32  C   -0.043739
    33  C   -0.044269
    34  C   -0.032737
    35  C    0.015262
    40  C   -0.422056
    41  C    0.521633
    42  C   -0.395001
    43  C    0.500401
    44  N   -0.667708
    45  C    0.525392
    50  C   -0.034828
    51  C    0.098841
    52  C   -0.065121
    53  C    0.011302
    54  C   -0.053608
    55  C    0.023089
    60  C   -0.440960
    61  C    0.503337
    62  C   -0.411622
    63  C    0.524924
    64  N   -0.689005
    65  C    0.554153
 Charge=   0.00000 Dipole=    -0.0062    -0.0045     4.6359 Tot=     4.6359
 -----------------------------------------------------------------

              Electrostatic Properties (Atomic Units)

 -----------------------------------------------------------------
    Center     Electric         -------- Electric Field --------
               Potential          X             Y             Z
 -----------------------------------------------------------------
    1 Atom    -14.761649
    2 Atom    -14.747605
    3 Atom    -14.761630
    4 Atom    -14.747608
    5 Atom    -14.761660
    6 Atom    -14.747631
    7 Atom     -1.091599
    8 Atom     -1.091582
    9 Atom     -1.091603
   10 Atom    -14.761108
   11 Atom    -14.747776
   12 Atom    -14.759933
   13 Atom    -14.747169
   14 Atom    -14.760525
   15 Atom    -14.760325
   16 Atom     -1.092993
   17 Atom     -1.090642
   18 Atom     -1.092068
   19 Atom     -1.093722
   20 Atom    -14.763159
   21 Atom    -14.740098
   22 Atom    -14.763283
   23 Atom    -14.739313
   24 Atom    -18.409537
   25 Atom    -14.739210
   26 Atom     -1.089500
   27 Atom     -1.089773
   28 Atom     -1.104901
   29 Atom     -1.104705
   30 Atom    -14.761086
   31 Atom    -14.747773
   32 Atom    -14.759946
   33 Atom    -14.747176
   34 Atom    -14.760521
   35 Atom    -14.760312
   36 Atom     -1.092979
   37 Atom     -1.090641
   38 Atom     -1.092066
   39 Atom     -1.093714
   40 Atom    -14.763165
   41 Atom    -14.740106
   42 Atom    -14.763282
   43 Atom    -14.739310
   44 Atom    -18.409539
   45 Atom    -14.739212
   46 Atom     -1.089508
   47 Atom     -1.089763
   48 Atom     -1.104902
   49 Atom     -1.104705
   50 Atom    -14.761098
   51 Atom    -14.747794
   52 Atom    -14.759951
   53 Atom    -14.747179
   54 Atom    -14.760518
   55 Atom    -14.760315
   56 Atom     -1.093002
   57 Atom     -1.090650
   58 Atom     -1.092057
   59 Atom     -1.093720
   60 Atom    -14.763160
   61 Atom    -14.740107
   62 Atom    -14.763289
   63 Atom    -14.739317
   64 Atom    -18.409544
   65 Atom    -14.739211
   66 Atom     -1.089498
   67 Atom     -1.089767
   68 Atom     -1.104907
   69 Atom     -1.104711
 -----------------------------------------------------------------
 Leave Link  602 at Tue Jun 15 15:22:58 2021, MaxMem=  7864320000 cpu:               1.4 elap:               1.4
 (Enter /sw/linux/gaussian/g16/g16/l9999.exe)
 1\1\GINC-THINC350\SP\RwB97XD\6-311G(d,p)\C39H27N3\LINK\15-Jun-2021\0\\
 #P wb97xd/6-311g(d,p) nosymm pop=MK\\Title Card Required\\0,1\C,0,-0.0
 6848,0.36861,0.12804\C,0,1.32502,0.33699,0.12688\C,0,2.02616,1.54168,0
 .12609\C,0,1.35682,2.76431,0.12552\C,0,-0.03701,2.76917,0.12593\C,0,-0
 .76107,1.57819,0.12706\H,0,-0.62345,-0.56342,0.12998\H,0,3.11081,1.527
 18,0.12633\H,0,-0.56692,3.71568,0.12591\C,0,1.72476,5.10464,0.93956\C,
 0,2.11461,4.04109,0.12366\C,0,3.23504,4.19802,-0.69124\C,0,3.96617,5.3
 8509,-0.70046\C,0,3.55925,6.43441,0.12478\C,0,2.44331,6.2917,0.93676\H
 ,0,0.86762,4.99237,1.59414\H,0,3.54493,3.37824,-1.33083\H,0,4.1049,7.3
 7127,0.1124\H,0,2.13172,7.11164,1.57356\C,0,6.31414,6.15809,-1.1356\C,
 0,5.15135,5.52941,-1.57968\C,0,5.15451,5.04234,-2.88634\C,0,6.29129,5.
 20258,-3.66629\N,0,7.40369,5.80186,-3.24512\C,0,7.39708,6.26624,-1.996
 83\H,0,6.38568,6.54021,-0.12386\H,0,4.27539,4.56336,-3.30161\H,0,6.306
 1,4.83349,-4.68806\H,0,8.31176,6.74804,-1.66253\C,0,3.16778,-1.15291,0
 .94015\C,0,2.05139,-0.95792,0.12503\C,0,1.6256,-2.00641,-0.68953\C,0,2
 .28682,-3.23376,-0.69892\C,0,3.39944,-3.40692,0.12558\C,0,3.83543,-2.3
 6939,0.93704\H,0,3.50027,-0.35462,1.59434\H,0,0.76052,-1.86424,-1.3287
 2\H,0,3.93708,-4.3484,0.11303\H,0,4.70162,-2.5102,1.57327\C,0,1.77948,
 -5.65329,-1.13244\C,0,1.81709,-4.33219,-1.57714\C,0,1.39194,-4.09156,-
 2.88321\C,0,0.95982,-5.15606,-3.66194\N,0,0.92195,-6.41885,-3.24017\C,
 0,1.32928,-6.64519,-1.99246\H,0,2.07585,-5.90614,-0.12101\H,0,1.41704,
 -3.09095,-3.29897\H,0,0.63124,-4.98443,-4.68324\H,0,1.28867,-7.67803,-
 1.65762\C,0,-2.97196,0.7319,0.94684\C,0,-2.24568,1.5965,0.12601\C,0,-2
 .94149,2.4845,-0.6933\C,0,-4.33506,2.52503,-0.70206\C,0,-5.04059,1.653
 09,0.12839\C,0,-4.35928,0.76184,0.94479\H,0,-2.44618,0.04874,1.60457\H
 ,0,-2.38625,3.15893,-1.33675\H,0,-6.12477,1.65804,0.11657\H,0,-4.91373
 ,0.08593,1.58559\C,0,-6.17824,4.16983,-1.14642\C,0,-5.05225,3.47479,-1
 .58639\C,0,-4.6314,3.71422,-2.89412\C,0,-5.3381,4.61464,-3.67902\N,0,-
 6.4134,5.28066,-3.2618\C,0,-6.81289,5.04921,-2.0125\H,0,-6.54542,4.045
 94,-0.1342\H,0,-3.77688,3.19017,-3.30628\H,0,-5.02537,4.80673,-4.70166
 \H,0,-7.68759,5.60227,-1.6815\\Version=ES64L-G16RevB.01\HF=-1666.49255
 06\RMSD=2.489e-09\Dipole=0.0011445,0.0029184,1.8204303\Quadrupole=-2.2
 046294,-2.1648767,4.369506,-0.0864707,2.1428021,5.394788\PG=C01 [X(C39
 H27N3)]\\@


  ON THE CHOICE OF THE CORRECT LANGUAGE -
 I SPEAK SPANISH TO GOD, ITALIAN TO WOMEN,
 FRENCH TO MEN, AND GERMAN TO MY HORSE.
          -- CHARLES V
 Job cpu time:       0 days  0 hours 36 minutes 27.6 seconds.
 Elapsed time:       0 days  0 hours 36 minutes 27.6 seconds.
 File lengths (MBytes):  RWF=    458 Int=      0 D2E=      0 Chk=     50 Scr=      1
 Normal termination of Gaussian 16 at Tue Jun 15 15:22:58 2021.
