 Entering Gaussian System, Link 0=g16
 Input=MK.com
 Output=MK.log
 Initial command:
 /sw/linux/gaussian/g16/g16/l1.exe "/usr/scratch/link/Gau-22005.inp" -scrdir="/usr/scratch/link/"
 Entering Link 1 = /sw/linux/gaussian/g16/g16/l1.exe PID=     22007.
  
 Copyright (c) 1988-2017, Gaussian, Inc.  All Rights Reserved.
  
 This is part of the Gaussian(R) 16 program.  It is based on
 the Gaussian(R) 09 system (copyright 2009, Gaussian, Inc.),
 the Gaussian(R) 03 system (copyright 2003, Gaussian, Inc.),
 the Gaussian(R) 98 system (copyright 1998, Gaussian, Inc.),
 the Gaussian(R) 94 system (copyright 1995, Gaussian, Inc.),
 the Gaussian 92(TM) system (copyright 1992, Gaussian, Inc.),
 the Gaussian 90(TM) system (copyright 1990, Gaussian, Inc.),
 the Gaussian 88(TM) system (copyright 1988, Gaussian, Inc.),
 the Gaussian 86(TM) system (copyright 1986, Carnegie Mellon
 University), and the Gaussian 82(TM) system (copyright 1983,
 Carnegie Mellon University). Gaussian is a federally registered
 trademark of Gaussian, Inc.
  
 This software contains proprietary and confidential information,
 including trade secrets, belonging to Gaussian, Inc.
  
 This software is provided under written license and may be
 used, copied, transmitted, or stored only in accord with that
 written license.
  
 The following legend is applicable only to US Government
 contracts under FAR:
  
                    RESTRICTED RIGHTS LEGEND
  
 Use, reproduction and disclosure by the US Government is
 subject to restrictions as set forth in subparagraphs (a)
 and (c) of the Commercial Computer Software - Restricted
 Rights clause in FAR 52.227-19.
  
 Gaussian, Inc.
 340 Quinnipiac St., Bldg. 40, Wallingford CT 06492
  
  
 ---------------------------------------------------------------
 Warning -- This program may not be used in any manner that
 competes with the business of Gaussian, Inc. or will provide
 assistance to any competitor of Gaussian, Inc.  The licensee
 of this program is prohibited from giving any competitor of
 Gaussian, Inc. access to this program.  By using this program,
 the user acknowledges that Gaussian, Inc. is engaged in the
 business of creating and licensing software in the field of
 computational chemistry and represents and warrants to the
 licensee that it is not a competitor of Gaussian, Inc. and that
 it will not use this program in any manner prohibited above.
 ---------------------------------------------------------------
  

 Cite this work as:
 Gaussian 16, Revision B.01,
 M. J. Frisch, G. W. Trucks, H. B. Schlegel, G. E. Scuseria, 
 M. A. Robb, J. R. Cheeseman, G. Scalmani, V. Barone, 
 G. A. Petersson, H. Nakatsuji, X. Li, M. Caricato, A. V. Marenich, 
 J. Bloino, B. G. Janesko, R. Gomperts, B. Mennucci, H. P. Hratchian, 
 J. V. Ortiz, A. F. Izmaylov, J. L. Sonnenberg, D. Williams-Young, 
 F. Ding, F. Lipparini, F. Egidi, J. Goings, B. Peng, A. Petrone, 
 T. Henderson, D. Ranasinghe, V. G. Zakrzewski, J. Gao, N. Rega, 
 G. Zheng, W. Liang, M. Hada, M. Ehara, K. Toyota, R. Fukuda, 
 J. Hasegawa, M. Ishida, T. Nakajima, Y. Honda, O. Kitao, H. Nakai, 
 T. Vreven, K. Throssell, J. A. Montgomery, Jr., J. E. Peralta, 
 F. Ogliaro, M. J. Bearpark, J. J. Heyd, E. N. Brothers, K. N. Kudin, 
 V. N. Staroverov, T. A. Keith, R. Kobayashi, J. Normand, 
 K. Raghavachari, A. P. Rendell, J. C. Burant, S. S. Iyengar, 
 J. Tomasi, M. Cossi, J. M. Millam, M. Klene, C. Adamo, R. Cammi, 
 J. W. Ochterski, R. L. Martin, K. Morokuma, O. Farkas, 
 J. B. Foresman, and D. J. Fox, Gaussian, Inc., Wallingford CT, 2016.
 
 ******************************************
 Gaussian 16:  ES64L-G16RevB.01 20-Dec-2017
                15-Jun-2021 
 ******************************************
 %mem=60000MB
 -----------------------------------
 #P wb97xd/6-311g(d,p) nosymm pop=MK
 -----------------------------------
 1/38=1,172=1/1;
 2/12=2,15=1,17=6,18=5,40=1/2;
 3/5=4,6=6,7=101,11=2,25=1,30=1,74=-58/1,2,3;
 4//1;
 5/5=2,38=5/2;
 6/7=2,8=2,9=2,10=2,15=8,20=1,28=1/1,2;
 99/5=1,9=1/99;
 Leave Link    1 at Tue Jun 15 14:46:28 2021, MaxMem=  7864320000 cpu:               0.0 elap:               0.0
 (Enter /sw/linux/gaussian/g16/g16/l101.exe)
 -------------------
 Title Card Required
 -------------------
 Symbolic Z-matrix:
 Charge =  0 Multiplicity = 1
 N                    -0.00645   0.0012    0.17305 
 C                    -1.41581  -0.09441   0.1793 
 C                    -2.19009   0.76758  -0.59891 
 C                    -3.57141   0.67539  -0.58537 
 C                    -4.22502  -0.28371   0.193 
 C                    -3.44085  -1.14225   0.96927 
 C                    -2.06008  -1.05048   0.96721 
 H                    -1.70202   1.50857  -1.22087 
 H                    -4.14992   1.34062  -1.2172 
 H                    -3.92324  -1.87129   1.61052 
 H                    -1.47078  -1.71653   1.58634 
 C                     0.61565   1.26962   0.17422 
 C                     1.74279   1.50894  -0.61339 
 C                     2.35475   2.75075  -0.60379 
 C                     1.85832   3.7959    0.17992 
 C                     0.72854   3.54661   0.96486 
 C                     0.11661   2.3054    0.96668 
 H                     2.13458   0.7159   -1.23924 
 H                     3.21502   2.91902  -1.24255 
 H                     0.34424   4.32877   1.60978 
 H                    -0.75013   2.12804   1.59243 
 C                     0.78158  -1.1713    0.17252 
 C                     1.9334   -1.25358   0.95765 
 C                     2.70439  -2.40272   0.95312 
 C                     2.35228  -3.50803   0.17281 
 C                     1.19311  -3.41928  -0.60267 
 C                     0.42156  -2.26976  -0.60969 
 H                     2.21612  -0.41253   1.57969 
 H                     3.57848  -2.45786   1.59211 
 H                     0.9057   -4.25047  -1.23745 
 H                    -0.46555  -2.21569  -1.22955 
 C                    -5.68767  -0.40909   0.20101 
 C                    -6.43645  -1.54449   0.33942 
 S                    -6.71831   0.97649   0.03089 
 C                    -7.83401  -1.30518   0.30953 
 H                    -5.99546  -2.5276    0.44084 
 C                    -8.15663   0.01277   0.1463 
 H                    -8.58091  -2.08022   0.42229 
 C                    -9.49507   0.61527   0.06435 
 C                    -9.75832   1.88369   0.58927 
 C                    -10.54083  -0.08872  -0.54058 
 C                    -11.03134   2.43078   0.5124 
 H                    -8.9642    2.43777   1.07794 
 C                    -11.81522   0.4554   -0.60586 
 H                    -10.34426  -1.06048  -0.97927 
 C                    -12.06562   1.71811  -0.08166 
 H                    -11.21735   3.41495   0.92715 
 H                    -12.61365  -0.10436  -1.07974 
 H                    -13.06019   2.14515  -0.13852 
 C                     2.48365   5.12411   0.18508 
 C                     1.87881   6.34162   0.32905 
 S                     4.19832   5.31974   0.0036 
 C                     2.7874    7.42998   0.29448 
 H                     0.80792   6.45388   0.43792 
 C                     4.08802   7.04742   0.12207 
 H                     2.49295   8.46492   0.41057 
 C                     5.28083   7.90216   0.03411 
 C                     6.51367   7.49012   0.54798 
 C                     5.19339   9.16246  -0.56515 
 C                     7.62597   8.31584   0.46603 
 H                     6.59728   6.52311   1.03205 
 C                     6.30392   9.99088  -0.63542 
 H                     4.25129   9.48292  -0.99544 
 C                     7.52532   9.5706   -0.12216 
 H                     8.57338   7.98014   0.87215 
 H                     6.2177    10.96444  -1.10461 
 H                     8.39393   10.21605  -0.18288 
 C                     3.19329  -4.7113    0.17334 
 C                     4.55154  -4.79153   0.30586 
 S                     2.50913  -6.29651  -0.0001 
 C                     5.04401  -6.12097   0.26873 
 H                     5.18214  -3.91791   0.40796 
 C                     4.06404  -7.05952   0.10593 
 H                     6.08934  -6.37986   0.37607 
 C                     4.21209  -8.51948   0.01809 
 C                     3.2473   -9.38411   0.5428 
 C                     5.343    -9.07048  -0.59225 
 C                     3.4104   -10.75972   0.46046 
 H                     2.37159  -8.9758    1.03557 
 C                     5.50943  -10.44588  -0.66298 
 H                     6.08468  -8.41248  -1.03083 
 C                     4.54314  -11.29648  -0.13889 
 H                     2.65261  -11.41472   0.87515 
 H                     6.39224  -10.85527  -1.14092 
 H                     4.67096  -12.37105  -0.19998 
 
 ITRead=  0  0  0  0  0  0  0  0  0  0  0  0  0  0  0  0  0  0  0  0
 ITRead=  0  0  0  0  0  0  0  0  0  0  0  0  0  0  0  0  0  0  0  0
 ITRead=  0  0  0  0  0  0  0  0  0  0  0  0  0  0  0  0  0  0  0  0
 ITRead=  0  0  0  0  0  0  0  0  0  0  0  0  0  0  0  0  0  0  0  0
 ITRead=  0  0  0  0  0
 MicOpt= -1 -1 -1 -1 -1 -1 -1 -1 -1 -1 -1 -1 -1 -1 -1 -1 -1 -1 -1 -1
 MicOpt= -1 -1 -1 -1 -1 -1 -1 -1 -1 -1 -1 -1 -1 -1 -1 -1 -1 -1 -1 -1
 MicOpt= -1 -1 -1 -1 -1 -1 -1 -1 -1 -1 -1 -1 -1 -1 -1 -1 -1 -1 -1 -1
 MicOpt= -1 -1 -1 -1 -1 -1 -1 -1 -1 -1 -1 -1 -1 -1 -1 -1 -1 -1 -1 -1
 MicOpt= -1 -1 -1 -1 -1
 NAtoms=     85 NQM=       85 NQMF=       0 NMMI=      0 NMMIF=      0
                NMic=       0 NMicF=      0.
                    Isotopes and Nuclear Properties:
 (Nuclear quadrupole moments (NQMom) in fm**2, nuclear magnetic moments (NMagM)
  in nuclear magnetons)

  Atom         1           2           3           4           5           6           7           8           9          10
 IAtWgt=          14          12          12          12          12          12          12           1           1           1
 AtmWgt=  14.0030740  12.0000000  12.0000000  12.0000000  12.0000000  12.0000000  12.0000000   1.0078250   1.0078250   1.0078250
 NucSpn=           2           0           0           0           0           0           0           1           1           1
 AtZEff=   0.0000000   0.0000000   0.0000000   0.0000000   0.0000000   0.0000000   0.0000000   0.0000000   0.0000000   0.0000000
 NQMom=    2.0440000   0.0000000   0.0000000   0.0000000   0.0000000   0.0000000   0.0000000   0.0000000   0.0000000   0.0000000
 NMagM=    0.4037610   0.0000000   0.0000000   0.0000000   0.0000000   0.0000000   0.0000000   2.7928460   2.7928460   2.7928460
 AtZNuc=   7.0000000   6.0000000   6.0000000   6.0000000   6.0000000   6.0000000   6.0000000   1.0000000   1.0000000   1.0000000

  Atom        11          12          13          14          15          16          17          18          19          20
 IAtWgt=           1          12          12          12          12          12          12           1           1           1
 AtmWgt=   1.0078250  12.0000000  12.0000000  12.0000000  12.0000000  12.0000000  12.0000000   1.0078250   1.0078250   1.0078250
 NucSpn=           1           0           0           0           0           0           0           1           1           1
 AtZEff=   0.0000000   0.0000000   0.0000000   0.0000000   0.0000000   0.0000000   0.0000000   0.0000000   0.0000000   0.0000000
 NQMom=    0.0000000   0.0000000   0.0000000   0.0000000   0.0000000   0.0000000   0.0000000   0.0000000   0.0000000   0.0000000
 NMagM=    2.7928460   0.0000000   0.0000000   0.0000000   0.0000000   0.0000000   0.0000000   2.7928460   2.7928460   2.7928460
 AtZNuc=   1.0000000   6.0000000   6.0000000   6.0000000   6.0000000   6.0000000   6.0000000   1.0000000   1.0000000   1.0000000

  Atom        21          22          23          24          25          26          27          28          29          30
 IAtWgt=           1          12          12          12          12          12          12           1           1           1
 AtmWgt=   1.0078250  12.0000000  12.0000000  12.0000000  12.0000000  12.0000000  12.0000000   1.0078250   1.0078250   1.0078250
 NucSpn=           1           0           0           0           0           0           0           1           1           1
 AtZEff=   0.0000000   0.0000000   0.0000000   0.0000000   0.0000000   0.0000000   0.0000000   0.0000000   0.0000000   0.0000000
 NQMom=    0.0000000   0.0000000   0.0000000   0.0000000   0.0000000   0.0000000   0.0000000   0.0000000   0.0000000   0.0000000
 NMagM=    2.7928460   0.0000000   0.0000000   0.0000000   0.0000000   0.0000000   0.0000000   2.7928460   2.7928460   2.7928460
 AtZNuc=   1.0000000   6.0000000   6.0000000   6.0000000   6.0000000   6.0000000   6.0000000   1.0000000   1.0000000   1.0000000

  Atom        31          32          33          34          35          36          37          38          39          40
 IAtWgt=           1          12          12          32          12           1          12           1          12          12
 AtmWgt=   1.0078250  12.0000000  12.0000000  31.9720718  12.0000000   1.0078250  12.0000000   1.0078250  12.0000000  12.0000000
 NucSpn=           1           0           0           0           0           1           0           1           0           0
 AtZEff=   0.0000000   0.0000000   0.0000000   0.0000000   0.0000000   0.0000000   0.0000000   0.0000000   0.0000000   0.0000000
 NQMom=    0.0000000   0.0000000   0.0000000   0.0000000   0.0000000   0.0000000   0.0000000   0.0000000   0.0000000   0.0000000
 NMagM=    2.7928460   0.0000000   0.0000000   0.0000000   0.0000000   2.7928460   0.0000000   2.7928460   0.0000000   0.0000000
 AtZNuc=   1.0000000   6.0000000   6.0000000  16.0000000   6.0000000   1.0000000   6.0000000   1.0000000   6.0000000   6.0000000

  Atom        41          42          43          44          45          46          47          48          49          50
 IAtWgt=          12          12           1          12           1          12           1           1           1          12
 AtmWgt=  12.0000000  12.0000000   1.0078250  12.0000000   1.0078250  12.0000000   1.0078250   1.0078250   1.0078250  12.0000000
 NucSpn=           0           0           1           0           1           0           1           1           1           0
 AtZEff=   0.0000000   0.0000000   0.0000000   0.0000000   0.0000000   0.0000000   0.0000000   0.0000000   0.0000000   0.0000000
 NQMom=    0.0000000   0.0000000   0.0000000   0.0000000   0.0000000   0.0000000   0.0000000   0.0000000   0.0000000   0.0000000
 NMagM=    0.0000000   0.0000000   2.7928460   0.0000000   2.7928460   0.0000000   2.7928460   2.7928460   2.7928460   0.0000000
 AtZNuc=   6.0000000   6.0000000   1.0000000   6.0000000   1.0000000   6.0000000   1.0000000   1.0000000   1.0000000   6.0000000

  Atom        51          52          53          54          55          56          57          58          59          60
 IAtWgt=          12          32          12           1          12           1          12          12          12          12
 AtmWgt=  12.0000000  31.9720718  12.0000000   1.0078250  12.0000000   1.0078250  12.0000000  12.0000000  12.0000000  12.0000000
 NucSpn=           0           0           0           1           0           1           0           0           0           0
 AtZEff=   0.0000000   0.0000000   0.0000000   0.0000000   0.0000000   0.0000000   0.0000000   0.0000000   0.0000000   0.0000000
 NQMom=    0.0000000   0.0000000   0.0000000   0.0000000   0.0000000   0.0000000   0.0000000   0.0000000   0.0000000   0.0000000
 NMagM=    0.0000000   0.0000000   0.0000000   2.7928460   0.0000000   2.7928460   0.0000000   0.0000000   0.0000000   0.0000000
 AtZNuc=   6.0000000  16.0000000   6.0000000   1.0000000   6.0000000   1.0000000   6.0000000   6.0000000   6.0000000   6.0000000

  Atom        61          62          63          64          65          66          67          68          69          70
 IAtWgt=           1          12           1          12           1           1           1          12          12          32
 AtmWgt=   1.0078250  12.0000000   1.0078250  12.0000000   1.0078250   1.0078250   1.0078250  12.0000000  12.0000000  31.9720718
 NucSpn=           1           0           1           0           1           1           1           0           0           0
 AtZEff=   0.0000000   0.0000000   0.0000000   0.0000000   0.0000000   0.0000000   0.0000000   0.0000000   0.0000000   0.0000000
 NQMom=    0.0000000   0.0000000   0.0000000   0.0000000   0.0000000   0.0000000   0.0000000   0.0000000   0.0000000   0.0000000
 NMagM=    2.7928460   0.0000000   2.7928460   0.0000000   2.7928460   2.7928460   2.7928460   0.0000000   0.0000000   0.0000000
 AtZNuc=   1.0000000   6.0000000   1.0000000   6.0000000   1.0000000   1.0000000   1.0000000   6.0000000   6.0000000  16.0000000

  Atom        71          72          73          74          75          76          77          78          79          80
 IAtWgt=          12           1          12           1          12          12          12          12           1          12
 AtmWgt=  12.0000000   1.0078250  12.0000000   1.0078250  12.0000000  12.0000000  12.0000000  12.0000000   1.0078250  12.0000000
 NucSpn=           0           1           0           1           0           0           0           0           1           0
 AtZEff=   0.0000000   0.0000000   0.0000000   0.0000000   0.0000000   0.0000000   0.0000000   0.0000000   0.0000000   0.0000000
 NQMom=    0.0000000   0.0000000   0.0000000   0.0000000   0.0000000   0.0000000   0.0000000   0.0000000   0.0000000   0.0000000
 NMagM=    0.0000000   2.7928460   0.0000000   2.7928460   0.0000000   0.0000000   0.0000000   0.0000000   2.7928460   0.0000000
 AtZNuc=   6.0000000   1.0000000   6.0000000   1.0000000   6.0000000   6.0000000   6.0000000   6.0000000   1.0000000   6.0000000

  Atom        81          82          83          84          85
 IAtWgt=           1          12           1           1           1
 AtmWgt=   1.0078250  12.0000000   1.0078250   1.0078250   1.0078250
 NucSpn=           1           0           1           1           1
 AtZEff=   0.0000000   0.0000000   0.0000000   0.0000000   0.0000000
 NQMom=    0.0000000   0.0000000   0.0000000   0.0000000   0.0000000
 NMagM=    2.7928460   0.0000000   2.7928460   2.7928460   2.7928460
 AtZNuc=   1.0000000   6.0000000   1.0000000   1.0000000   1.0000000
 Leave Link  101 at Tue Jun 15 14:46:28 2021, MaxMem=  7864320000 cpu:               0.2 elap:               0.2
 (Enter /sw/linux/gaussian/g16/g16/l202.exe)
 Symmetry turned off by external request.
 Stoichiometry    C48H33NS3
 Framework group  C1[X(C48H33NS3)]
 Deg. of freedom   249
 Full point group                 C1      NOp   1
                          Input orientation:                          
 ---------------------------------------------------------------------
 Center     Atomic      Atomic             Coordinates (Angstroms)
 Number     Number       Type             X           Y           Z
 ---------------------------------------------------------------------
      1          7           0       -0.006450    0.001200    0.173050
      2          6           0       -1.415810   -0.094410    0.179300
      3          6           0       -2.190090    0.767580   -0.598910
      4          6           0       -3.571410    0.675390   -0.585370
      5          6           0       -4.225020   -0.283710    0.193000
      6          6           0       -3.440850   -1.142250    0.969270
      7          6           0       -2.060080   -1.050480    0.967210
      8          1           0       -1.702020    1.508570   -1.220870
      9          1           0       -4.149920    1.340620   -1.217200
     10          1           0       -3.923240   -1.871290    1.610520
     11          1           0       -1.470780   -1.716530    1.586340
     12          6           0        0.615650    1.269620    0.174220
     13          6           0        1.742790    1.508940   -0.613390
     14          6           0        2.354750    2.750750   -0.603790
     15          6           0        1.858320    3.795900    0.179920
     16          6           0        0.728540    3.546610    0.964860
     17          6           0        0.116610    2.305400    0.966680
     18          1           0        2.134580    0.715900   -1.239240
     19          1           0        3.215020    2.919020   -1.242550
     20          1           0        0.344240    4.328770    1.609780
     21          1           0       -0.750130    2.128040    1.592430
     22          6           0        0.781580   -1.171300    0.172520
     23          6           0        1.933400   -1.253580    0.957650
     24          6           0        2.704390   -2.402720    0.953120
     25          6           0        2.352280   -3.508030    0.172810
     26          6           0        1.193110   -3.419280   -0.602670
     27          6           0        0.421560   -2.269760   -0.609690
     28          1           0        2.216120   -0.412530    1.579690
     29          1           0        3.578480   -2.457860    1.592110
     30          1           0        0.905700   -4.250470   -1.237450
     31          1           0       -0.465550   -2.215690   -1.229550
     32          6           0       -5.687670   -0.409090    0.201010
     33          6           0       -6.436450   -1.544490    0.339420
     34         16           0       -6.718310    0.976490    0.030890
     35          6           0       -7.834010   -1.305180    0.309530
     36          1           0       -5.995460   -2.527600    0.440840
     37          6           0       -8.156630    0.012770    0.146300
     38          1           0       -8.580910   -2.080220    0.422290
     39          6           0       -9.495070    0.615270    0.064350
     40          6           0       -9.758320    1.883690    0.589270
     41          6           0      -10.540830   -0.088720   -0.540580
     42          6           0      -11.031340    2.430780    0.512400
     43          1           0       -8.964200    2.437770    1.077940
     44          6           0      -11.815220    0.455400   -0.605860
     45          1           0      -10.344260   -1.060480   -0.979270
     46          6           0      -12.065620    1.718110   -0.081660
     47          1           0      -11.217350    3.414950    0.927150
     48          1           0      -12.613650   -0.104360   -1.079740
     49          1           0      -13.060190    2.145150   -0.138520
     50          6           0        2.483650    5.124110    0.185080
     51          6           0        1.878810    6.341620    0.329050
     52         16           0        4.198320    5.319740    0.003600
     53          6           0        2.787400    7.429980    0.294480
     54          1           0        0.807920    6.453880    0.437920
     55          6           0        4.088020    7.047420    0.122070
     56          1           0        2.492950    8.464920    0.410570
     57          6           0        5.280830    7.902160    0.034110
     58          6           0        6.513670    7.490120    0.547980
     59          6           0        5.193390    9.162460   -0.565150
     60          6           0        7.625970    8.315840    0.466030
     61          1           0        6.597280    6.523110    1.032050
     62          6           0        6.303920    9.990880   -0.635420
     63          1           0        4.251290    9.482920   -0.995440
     64          6           0        7.525320    9.570600   -0.122160
     65          1           0        8.573380    7.980140    0.872150
     66          1           0        6.217700   10.964440   -1.104610
     67          1           0        8.393930   10.216050   -0.182880
     68          6           0        3.193290   -4.711300    0.173340
     69          6           0        4.551540   -4.791530    0.305860
     70         16           0        2.509130   -6.296510   -0.000100
     71          6           0        5.044010   -6.120970    0.268730
     72          1           0        5.182140   -3.917910    0.407960
     73          6           0        4.064040   -7.059520    0.105930
     74          1           0        6.089340   -6.379860    0.376070
     75          6           0        4.212090   -8.519480    0.018090
     76          6           0        3.247300   -9.384110    0.542800
     77          6           0        5.343000   -9.070480   -0.592250
     78          6           0        3.410400  -10.759720    0.460460
     79          1           0        2.371590   -8.975800    1.035570
     80          6           0        5.509430  -10.445880   -0.662980
     81          1           0        6.084680   -8.412480   -1.030830
     82          6           0        4.543140  -11.296480   -0.138890
     83          1           0        2.652610  -11.414720    0.875150
     84          1           0        6.392240  -10.855270   -1.140920
     85          1           0        4.670960  -12.371050   -0.199980
 ---------------------------------------------------------------------
 Rotational constants (GHZ):           0.0238168           0.0237551           0.0119955
 Leave Link  202 at Tue Jun 15 14:46:28 2021, MaxMem=  7864320000 cpu:               0.0 elap:               0.0
 (Enter /sw/linux/gaussian/g16/g16/l301.exe)
 Standard basis: 6-311G(d,p) (5D, 7F)
 Ernie: Thresh=  0.10000D-02 Tol=  0.10000D-05 Strict=F.
  1158 basis functions,  1970 primitive gaussians,  1210 cartesian basis functions
   188 alpha electrons      188 beta electrons
       nuclear repulsion energy      5929.1669748417 Hartrees.
 IExCor= 4639 DFT=T Ex+Corr=wB97XD ExCW=0 ScaHFX=  1.000000
 ScaDFX=  1.000000  1.000000  1.000000  1.000000 ScalE2=  1.000000  1.000000
 IRadAn=      5 IRanWt=     -1 IRanGd=            0 ICorTp=0 IEmpDi=121
 HFx  wShort=  0.000000 wLong=  0.200000 cFull=  0.222036 cShort=  0.000000 cLong=  0.777964
 DFx  wShort=  0.000000 wLong=  0.200000 cFull=  0.000000 cShort=  0.000000 cLong=  1.000000
 NAtoms=   85 NActive=   85 NUniq=   85 SFac= 1.00D+00 NAtFMM=   60 NAOKFM=T Big=T
 Integral buffers will be    131072 words long.
 Raffenetti 2 integral format.
 Two-electron integral symmetry is turned off.
 R6Disp:  Grimme-D2 Dispersion energy=       -0.0635991105 Hartrees.
 Nuclear repulsion after empirical dispersion term =     5929.1033757312 Hartrees.
 Leave Link  301 at Tue Jun 15 14:46:28 2021, MaxMem=  7864320000 cpu:               0.1 elap:               0.1
 (Enter /sw/linux/gaussian/g16/g16/l302.exe)
 NPDir=0 NMtPBC=     1 NCelOv=     1 NCel=       1 NClECP=     1 NCelD=      1
         NCelK=      1 NCelE2=     1 NClLst=     1 CellRange=     0.0.
 One-electron integrals computed using PRISM.
 NBasis=  1158 RedAO= T EigKep=  1.45D-04  NBF=  1158
 NBsUse=  1158 1.00D-06 EigRej= -1.00D+00 NBFU=  1158
 Precomputing XC quadrature grid using
 IXCGrd= 4 IRadAn=           5 IRanWt=          -1 IRanGd=           0 AccXCQ= 0.00D+00.
 Generated NRdTot=       0 NPtTot=           0 NUsed=           0 NTot=          32
 NSgBfM=   909   893   898   909   909 MxSgAt=    85 MxSgA2=    85.
 Leave Link  302 at Tue Jun 15 14:46:37 2021, MaxMem=  7864320000 cpu:               8.9 elap:               8.9
 (Enter /sw/linux/gaussian/g16/g16/l303.exe)
 DipDrv:  MaxL=1.
 Leave Link  303 at Tue Jun 15 14:46:37 2021, MaxMem=  7864320000 cpu:               0.2 elap:               0.2
 (Enter /sw/linux/gaussian/g16/g16/l401.exe)
 ExpMin= 7.71D-02 ExpMax= 9.34D+04 ExpMxC= 3.17D+03 IAcc=3 IRadAn=         5 AccDes= 0.00D+00
 Harris functional with IExCor= 4639 and IRadAn=       5 diagonalized for initial guess.
 HarFok:  IExCor= 4639 AccDes= 0.00D+00 IRadAn=         5 IDoV= 1 UseB2=F ITyADJ=14
 ICtDFT=  3500011 ScaDFX=  1.000000  1.000000  1.000000  1.000000
 FoFCou: FMM=F IPFlag=           0 FMFlag=      100000 FMFlg1=        2001
         NFxFlg=           0 DoJE=T BraDBF=F KetDBF=T FulRan=T
         wScrn=  0.000000 ICntrl=       500 IOpCl=  0 I1Cent=   200000004 NGrid=           0
         NMat0=    1 NMatS0=      1 NMatT0=    0 NMatD0=    1 NMtDS0=    0 NMtDT0=    0
 Symmetry not used in FoFCou.
 Harris En= -2991.13126629122    
 JPrj=0 DoOrth=F DoCkMO=F.
 Leave Link  401 at Tue Jun 15 14:48:05 2021, MaxMem=  7864320000 cpu:              87.6 elap:              87.6
 (Enter /sw/linux/gaussian/g16/g16/l502.exe)
 Two-electron integral symmetry not used.
 Closed shell SCF:
 Using DIIS extrapolation, IDIIS=  1040.
 NGot=  7864320000 LenX=  7861375859 LenY=  7859910549
 Requested convergence on RMS density matrix=1.00D-08 within 128 cycles.
 Requested convergence on MAX density matrix=1.00D-06.
 Requested convergence on             energy=1.00D-06.
 No special actions if energy rises.
 Fock matrices will be formed incrementally for  20 cycles.
 Integral accuracy reduced to 1.0D-05 until final iterations.

 Cycle   1  Pass 0  IDiag  1:
 FoFJK:  IHMeth= 1 ICntrl=       0 DoSepK=T KAlg= 0 I1Cent=           0 FoldK=F
 IRaf=         1 NMat=       1 IRICut=       1 DoRegI=T DoRafI=F ISym2E= 0 IDoP0=0 IntGTp=1.
 FoFCou: FMM=T IPFlag=           0 FMFlag=      100000 FMFlg1=        2001
         NFxFlg=           0 DoJE=T BraDBF=F KetDBF=F FulRan=T
         wScrn=  0.000000 ICntrl=       500 IOpCl=  0 I1Cent=           0 NGrid=           0
         NMat0=    1 NMatS0=      1 NMatT0=    0 NMatD0=    1 NMtDS0=    0 NMtDT0=    0
 Symmetry not used in FoFCou.
 FMM levels:  10  Number of levels for PrismC:   9
 E= -3097.02614227874    
 DIIS: error= 6.86D-02 at cycle   1 NSaved=   1.
 NSaved= 1 IEnMin= 1 EnMin= -3097.02614227874     IErMin= 1 ErrMin= 6.86D-02
 ErrMax= 6.86D-02  0.00D+00 EMaxC= 1.00D-01 BMatC= 7.67D+00 BMatP= 7.67D+00
 IDIUse=3 WtCom= 3.14D-01 WtEn= 6.86D-01
 Coeff-Com:  0.100D+01
 Coeff-En:   0.100D+01
 Coeff:      0.100D+01
 Gap=     0.289 Goal=   None    Shift=    0.000
 GapD=    0.289 DampG=1.000 DampE=0.500 DampFc=0.5000 IDamp=-1.
 Damping current iteration by 5.00D-01
 RMSDP=1.70D-03 MaxDP=2.40D-01              OVMax= 2.14D-01

 Cycle   2  Pass 0  IDiag  1:
 RMSU=  8.45D-04    CP:  9.85D-01
 E= -3097.54517371970     Delta-E=       -0.519031440959 Rises=F Damp=T
 DIIS: error= 2.54D-02 at cycle   2 NSaved=   2.
 NSaved= 2 IEnMin= 2 EnMin= -3097.54517371970     IErMin= 2 ErrMin= 2.54D-02
 ErrMax= 2.54D-02  0.00D+00 EMaxC= 1.00D-01 BMatC= 1.39D+00 BMatP= 7.67D+00
 IDIUse=3 WtCom= 7.46D-01 WtEn= 2.54D-01
 Coeff-Com: -0.553D+00 0.155D+01
 Coeff-En:   0.000D+00 0.100D+01
 Coeff:     -0.413D+00 0.141D+01
 Gap=     0.336 Goal=   None    Shift=    0.000
 RMSDP=7.97D-04 MaxDP=5.39D-02 DE=-5.19D-01 OVMax= 2.09D-01

 Cycle   3  Pass 0  IDiag  1:
 RMSU=  7.12D-04    CP:  9.80D-01  5.79D-01
 E= -3097.86211172009     Delta-E=       -0.316938000387 Rises=F Damp=F
 DIIS: error= 1.72D-02 at cycle   3 NSaved=   3.
 NSaved= 3 IEnMin= 3 EnMin= -3097.86211172009     IErMin= 3 ErrMin= 1.72D-02
 ErrMax= 1.72D-02  0.00D+00 EMaxC= 1.00D-01 BMatC= 2.40D-01 BMatP= 1.39D+00
 IDIUse=3 WtCom= 8.28D-01 WtEn= 1.72D-01
 Coeff-Com: -0.291D+00 0.670D+00 0.621D+00
 Coeff-En:   0.000D+00 0.000D+00 0.100D+01
 Coeff:     -0.241D+00 0.555D+00 0.686D+00
 Gap=     0.308 Goal=   None    Shift=    0.000
 RMSDP=6.48D-04 MaxDP=5.06D-02 DE=-3.17D-01 OVMax= 1.24D-01

 Cycle   4  Pass 0  IDiag  1:
 RMSU=  2.94D-04    CP:  9.75D-01  1.17D+00  5.90D-01
 E= -3098.05822337912     Delta-E=       -0.196111659036 Rises=F Damp=F
 DIIS: error= 7.82D-03 at cycle   4 NSaved=   4.
 NSaved= 4 IEnMin= 4 EnMin= -3098.05822337912     IErMin= 4 ErrMin= 7.82D-03
 ErrMax= 7.82D-03  0.00D+00 EMaxC= 1.00D-01 BMatC= 4.40D-02 BMatP= 2.40D-01
 IDIUse=3 WtCom= 9.22D-01 WtEn= 7.82D-02
 Coeff-Com: -0.976D-01 0.216D+00 0.374D+00 0.507D+00
 Coeff-En:   0.000D+00 0.000D+00 0.129D+00 0.871D+00
 Coeff:     -0.899D-01 0.199D+00 0.355D+00 0.536D+00
 Gap=     0.260 Goal=   None    Shift=    0.000
 RMSDP=2.13D-04 MaxDP=2.02D-02 DE=-1.96D-01 OVMax= 5.26D-02

 Cycle   5  Pass 0  IDiag  1:
 RMSU=  8.52D-05    CP:  9.76D-01  1.04D+00  7.52D-01  6.12D-01
 E= -3098.10032178707     Delta-E=       -0.042098407943 Rises=F Damp=F
 DIIS: error= 1.93D-03 at cycle   5 NSaved=   5.
 NSaved= 5 IEnMin= 5 EnMin= -3098.10032178707     IErMin= 5 ErrMin= 1.93D-03
 ErrMax= 1.93D-03  0.00D+00 EMaxC= 1.00D-01 BMatC= 1.41D-03 BMatP= 4.40D-02
 IDIUse=3 WtCom= 9.81D-01 WtEn= 1.93D-02
 Coeff-Com: -0.168D-01 0.355D-01 0.115D+00 0.247D+00 0.619D+00
 Coeff-En:   0.000D+00 0.000D+00 0.000D+00 0.000D+00 0.100D+01
 Coeff:     -0.164D-01 0.348D-01 0.113D+00 0.243D+00 0.626D+00
 Gap=     0.255 Goal=   None    Shift=    0.000
 RMSDP=5.07D-05 MaxDP=3.11D-03 DE=-4.21D-02 OVMax= 1.19D-02

 Cycle   6  Pass 0  IDiag  1:
 RMSU=  2.69D-05    CP:  9.76D-01  1.02D+00  7.61D-01  7.27D-01  7.33D-01
 E= -3098.10177687309     Delta-E=       -0.001455086025 Rises=F Damp=F
 DIIS: error= 7.16D-04 at cycle   6 NSaved=   6.
 NSaved= 6 IEnMin= 6 EnMin= -3098.10177687309     IErMin= 6 ErrMin= 7.16D-04
 ErrMax= 7.16D-04  0.00D+00 EMaxC= 1.00D-01 BMatC= 1.98D-04 BMatP= 1.41D-03
 IDIUse=3 WtCom= 9.93D-01 WtEn= 7.16D-03
 Coeff-Com:  0.101D-01-0.227D-01-0.162D-01 0.849D-02 0.292D+00 0.728D+00
 Coeff-En:   0.000D+00 0.000D+00 0.000D+00 0.000D+00 0.000D+00 0.100D+01
 Coeff:      0.100D-01-0.225D-01-0.161D-01 0.843D-02 0.290D+00 0.730D+00
 Gap=     0.256 Goal=   None    Shift=    0.000
 RMSDP=2.16D-05 MaxDP=1.38D-03 DE=-1.46D-03 OVMax= 3.79D-03

 Cycle   7  Pass 0  IDiag  1:
 RMSU=  1.31D-05    CP:  9.76D-01  1.02D+00  7.70D-01  7.44D-01  8.98D-01
                    CP:  8.94D-01
 E= -3098.10203362832     Delta-E=       -0.000256755229 Rises=F Damp=F
 DIIS: error= 1.36D-04 at cycle   7 NSaved=   7.
 NSaved= 7 IEnMin= 7 EnMin= -3098.10203362832     IErMin= 7 ErrMin= 1.36D-04
 ErrMax= 1.36D-04  0.00D+00 EMaxC= 1.00D-01 BMatC= 1.59D-05 BMatP= 1.98D-04
 IDIUse=3 WtCom= 9.99D-01 WtEn= 1.36D-03
 Coeff-Com:  0.406D-02-0.878D-02-0.181D-01-0.322D-01 0.840D-02 0.249D+00
 Coeff-Com:  0.798D+00
 Coeff-En:   0.000D+00 0.000D+00 0.000D+00 0.000D+00 0.000D+00 0.000D+00
 Coeff-En:   0.100D+01
 Coeff:      0.406D-02-0.877D-02-0.180D-01-0.322D-01 0.838D-02 0.248D+00
 Coeff:      0.798D+00
 Gap=     0.256 Goal=   None    Shift=    0.000
 RMSDP=9.74D-06 MaxDP=6.87D-04 DE=-2.57D-04 OVMax= 1.73D-03

 Initial convergence to 1.0D-05 achieved.  Increase integral accuracy.
 Cycle   8  Pass 1  IDiag  1:
 E= -3098.10186751756     Delta-E=        0.000166110764 Rises=F Damp=F
 DIIS: error= 1.64D-04 at cycle   1 NSaved=   1.
 NSaved= 1 IEnMin= 1 EnMin= -3098.10186751756     IErMin= 1 ErrMin= 1.64D-04
 ErrMax= 1.64D-04  0.00D+00 EMaxC= 1.00D-01 BMatC= 2.10D-05 BMatP= 2.10D-05
 IDIUse=3 WtCom= 9.98D-01 WtEn= 1.64D-03
 Coeff-Com:  0.100D+01
 Coeff-En:   0.100D+01
 Coeff:      0.100D+01
 Gap=     0.256 Goal=   None    Shift=    0.000
 RMSDP=9.74D-06 MaxDP=6.87D-04 DE= 1.66D-04 OVMax= 7.79D-04

 Cycle   9  Pass 1  IDiag  1:
 RMSU=  8.81D-05    CP:  1.00D+00
 E= -3098.10188973113     Delta-E=       -0.000022213570 Rises=F Damp=F
 DIIS: error= 3.31D-05 at cycle   2 NSaved=   2.
 NSaved= 2 IEnMin= 2 EnMin= -3098.10188973113     IErMin= 2 ErrMin= 3.31D-05
 ErrMax= 3.31D-05  0.00D+00 EMaxC= 1.00D-01 BMatC= 1.23D-06 BMatP= 2.10D-05
 IDIUse=1 WtCom= 1.00D+00 WtEn= 0.00D+00
 Coeff-Com:  0.516D-01 0.948D+00
 Coeff:      0.516D-01 0.948D+00
 Gap=     0.256 Goal=   None    Shift=    0.000
 RMSDP=4.88D-06 MaxDP=1.86D-04 DE=-2.22D-05 OVMax= 4.67D-04

 Cycle  10  Pass 1  IDiag  1:
 RMSU=  2.57D-06    CP:  9.99D-01  1.05D+00
 E= -3098.10189026305     Delta-E=       -0.000000531922 Rises=F Damp=F
 DIIS: error= 3.83D-05 at cycle   3 NSaved=   3.
 NSaved= 3 IEnMin= 3 EnMin= -3098.10189026305     IErMin= 2 ErrMin= 3.31D-05
 ErrMax= 3.83D-05  0.00D+00 EMaxC= 1.00D-01 BMatC= 1.38D-06 BMatP= 1.23D-06
 IDIUse=1 WtCom= 1.00D+00 WtEn= 0.00D+00
 Coeff-Com: -0.270D-01 0.523D+00 0.504D+00
 Coeff:     -0.270D-01 0.523D+00 0.504D+00
 Gap=     0.256 Goal=   None    Shift=    0.000
 RMSDP=1.25D-06 MaxDP=8.34D-05 DE=-5.32D-07 OVMax= 2.22D-04

 Cycle  11  Pass 1  IDiag  1:
 RMSU=  9.43D-07    CP:  9.99D-01  1.05D+00  7.42D-01
 E= -3098.10189172610     Delta-E=       -0.000001463050 Rises=F Damp=F
 DIIS: error= 9.05D-06 at cycle   4 NSaved=   4.
 NSaved= 4 IEnMin= 4 EnMin= -3098.10189172610     IErMin= 4 ErrMin= 9.05D-06
 ErrMax= 9.05D-06  0.00D+00 EMaxC= 1.00D-01 BMatC= 3.44D-08 BMatP= 1.23D-06
 IDIUse=1 WtCom= 1.00D+00 WtEn= 0.00D+00
 Coeff-Com: -0.946D-02 0.871D-01 0.124D+00 0.798D+00
 Coeff:     -0.946D-02 0.871D-01 0.124D+00 0.798D+00
 Gap=     0.256 Goal=   None    Shift=    0.000
 RMSDP=3.91D-07 MaxDP=2.66D-05 DE=-1.46D-06 OVMax= 9.20D-05

 Cycle  12  Pass 1  IDiag  1:
 RMSU=  3.20D-07    CP:  9.99D-01  1.05D+00  8.16D-01  1.11D+00
 E= -3098.10189181609     Delta-E=       -0.000000089993 Rises=F Damp=F
 DIIS: error= 5.20D-06 at cycle   5 NSaved=   5.
 NSaved= 5 IEnMin= 5 EnMin= -3098.10189181609     IErMin= 5 ErrMin= 5.20D-06
 ErrMax= 5.20D-06  0.00D+00 EMaxC= 1.00D-01 BMatC= 1.51D-08 BMatP= 3.44D-08
 IDIUse=1 WtCom= 1.00D+00 WtEn= 0.00D+00
 Coeff-Com:  0.657D-02-0.178D+00-0.153D+00 0.410D+00 0.914D+00
 Coeff:      0.657D-02-0.178D+00-0.153D+00 0.410D+00 0.914D+00
 Gap=     0.256 Goal=   None    Shift=    0.000
 RMSDP=3.35D-07 MaxDP=2.83D-05 DE=-9.00D-08 OVMax= 1.08D-04

 Cycle  13  Pass 1  IDiag  1:
 RMSU=  1.99D-07    CP:  9.99D-01  1.05D+00  8.57D-01  1.36D+00  1.30D+00
 E= -3098.10189186319     Delta-E=       -0.000000047097 Rises=F Damp=F
 DIIS: error= 1.66D-06 at cycle   6 NSaved=   6.
 NSaved= 6 IEnMin= 6 EnMin= -3098.10189186319     IErMin= 6 ErrMin= 1.66D-06
 ErrMax= 1.66D-06  0.00D+00 EMaxC= 1.00D-01 BMatC= 1.64D-09 BMatP= 1.51D-08
 IDIUse=1 WtCom= 1.00D+00 WtEn= 0.00D+00
 Coeff-Com:  0.391D-02-0.872D-01-0.803D-01 0.931D-01 0.400D+00 0.671D+00
 Coeff:      0.391D-02-0.872D-01-0.803D-01 0.931D-01 0.400D+00 0.671D+00
 Gap=     0.256 Goal=   None    Shift=    0.000
 RMSDP=7.60D-08 MaxDP=5.98D-06 DE=-4.71D-08 OVMax= 2.00D-05

 Cycle  14  Pass 1  IDiag  1:
 RMSU=  4.37D-08    CP:  9.99D-01  1.05D+00  8.63D-01  1.38D+00  1.45D+00
                    CP:  1.11D+00
 E= -3098.10189186617     Delta-E=       -0.000000002987 Rises=F Damp=F
 DIIS: error= 6.49D-07 at cycle   7 NSaved=   7.
 NSaved= 7 IEnMin= 7 EnMin= -3098.10189186617     IErMin= 7 ErrMin= 6.49D-07
 ErrMax= 6.49D-07  0.00D+00 EMaxC= 1.00D-01 BMatC= 2.05D-10 BMatP= 1.64D-09
 IDIUse=1 WtCom= 1.00D+00 WtEn= 0.00D+00
 Coeff-Com:  0.110D-02-0.213D-01-0.208D-01-0.501D-02 0.826D-01 0.290D+00
 Coeff-Com:  0.673D+00
 Coeff:      0.110D-02-0.213D-01-0.208D-01-0.501D-02 0.826D-01 0.290D+00
 Coeff:      0.673D+00
 Gap=     0.256 Goal=   None    Shift=    0.000
 RMSDP=3.01D-08 MaxDP=1.91D-06 DE=-2.99D-09 OVMax= 6.19D-06

 Cycle  15  Pass 1  IDiag  1:
 RMSU=  1.55D-08    CP:  9.99D-01  1.05D+00  8.63D-01  1.38D+00  1.50D+00
                    CP:  1.20D+00  8.70D-01
 E= -3098.10189186621     Delta-E=       -0.000000000040 Rises=F Damp=F
 DIIS: error= 2.83D-07 at cycle   8 NSaved=   8.
 NSaved= 8 IEnMin= 8 EnMin= -3098.10189186621     IErMin= 8 ErrMin= 2.83D-07
 ErrMax= 2.83D-07  0.00D+00 EMaxC= 1.00D-01 BMatC= 3.84D-11 BMatP= 2.05D-10
 IDIUse=1 WtCom= 1.00D+00 WtEn= 0.00D+00
 Coeff-Com: -0.317D-03 0.863D-02 0.747D-02-0.207D-01-0.423D-01-0.122D-01
 Coeff-Com:  0.316D+00 0.743D+00
 Coeff:     -0.317D-03 0.863D-02 0.747D-02-0.207D-01-0.423D-01-0.122D-01
 Coeff:      0.316D+00 0.743D+00
 Gap=     0.256 Goal=   None    Shift=    0.000
 RMSDP=1.19D-08 MaxDP=6.89D-07 DE=-4.00D-11 OVMax= 1.84D-06

 Cycle  16  Pass 1  IDiag  1:
 RMSU=  5.97D-09    CP:  9.99D-01  1.05D+00  8.62D-01  1.38D+00  1.51D+00
                    CP:  1.23D+00  1.00D+00  1.05D+00
 E= -3098.10189186638     Delta-E=       -0.000000000162 Rises=F Damp=F
 DIIS: error= 5.75D-08 at cycle   9 NSaved=   9.
 NSaved= 9 IEnMin= 9 EnMin= -3098.10189186638     IErMin= 9 ErrMin= 5.75D-08
 ErrMax= 5.75D-08  0.00D+00 EMaxC= 1.00D-01 BMatC= 1.84D-12 BMatP= 3.84D-11
 IDIUse=1 WtCom= 1.00D+00 WtEn= 0.00D+00
 Coeff-Com: -0.174D-03 0.404D-02 0.373D-02-0.525D-02-0.177D-01-0.287D-01
 Coeff-Com:  0.441D-01 0.184D+00 0.816D+00
 Coeff:     -0.174D-03 0.404D-02 0.373D-02-0.525D-02-0.177D-01-0.287D-01
 Coeff:      0.441D-01 0.184D+00 0.816D+00
 Gap=     0.256 Goal=   None    Shift=    0.000
 RMSDP=2.68D-09 MaxDP=2.71D-07 DE=-1.62D-10 OVMax= 9.93D-07

 SCF Done:  E(RwB97XD) =  -3098.10189187     A.U. after   16 cycles
            NFock= 16  Conv=0.27D-08     -V/T= 2.0030
 KE= 3.088889306113D+03 PE=-1.911700143628D+04 EE= 7.000906862568D+03
 Leave Link  502 at Tue Jun 15 15:38:56 2021, MaxMem=  7864320000 cpu:            3050.9 elap:            3050.9
 (Enter /sw/linux/gaussian/g16/g16/l601.exe)
 Copying SCF densities to generalized density rwf, IOpCl= 0 IROHF=0.

 **********************************************************************

            Population analysis using the SCF Density.

 **********************************************************************

 Alpha  occ. eigenvalues --  -89.04316 -89.04315 -89.04314 -14.46952 -10.33753
 Alpha  occ. eigenvalues --  -10.33753 -10.33752 -10.32270 -10.32266 -10.32264
 Alpha  occ. eigenvalues --  -10.32192 -10.32189 -10.32186 -10.30924 -10.30921
 Alpha  occ. eigenvalues --  -10.30920 -10.30791 -10.30784 -10.30780 -10.29637
 Alpha  occ. eigenvalues --  -10.29633 -10.29632 -10.29630 -10.29630 -10.29628
 Alpha  occ. eigenvalues --  -10.29306 -10.29299 -10.29297 -10.29291 -10.29288
 Alpha  occ. eigenvalues --  -10.29284 -10.29234 -10.29232 -10.29231 -10.29229
 Alpha  occ. eigenvalues --  -10.29227 -10.29227 -10.29176 -10.29174 -10.29174
 Alpha  occ. eigenvalues --  -10.29164 -10.29162 -10.29162 -10.29045 -10.29044
 Alpha  occ. eigenvalues --  -10.29043 -10.28938 -10.28935 -10.28933 -10.28884
 Alpha  occ. eigenvalues --  -10.28880 -10.28877  -8.08434  -8.08433  -8.08431
 Alpha  occ. eigenvalues --   -6.03262  -6.03260  -6.03259  -6.02884  -6.02882
 Alpha  occ. eigenvalues --   -6.02881  -6.02541  -6.02539  -6.02538  -1.08337
 Alpha  occ. eigenvalues --   -1.00063  -1.00060  -0.99981  -0.97579  -0.97576
 Alpha  occ. eigenvalues --   -0.96882  -0.96299  -0.96297  -0.95228  -0.89586
 Alpha  occ. eigenvalues --   -0.89585  -0.88327  -0.86867  -0.86866  -0.85899
 Alpha  occ. eigenvalues --   -0.85896  -0.85883  -0.85493  -0.85469  -0.85468
 Alpha  occ. eigenvalues --   -0.84614  -0.83462  -0.83460  -0.83206  -0.80844
 Alpha  occ. eigenvalues --   -0.80842  -0.78918  -0.74189  -0.74187  -0.72050
 Alpha  occ. eigenvalues --   -0.71895  -0.71893  -0.71110  -0.70872  -0.70870
 Alpha  occ. eigenvalues --   -0.70797  -0.70032  -0.70030  -0.68175  -0.64839
 Alpha  occ. eigenvalues --   -0.64830  -0.64827  -0.64549  -0.64548  -0.64450
 Alpha  occ. eigenvalues --   -0.63254  -0.63251  -0.62094  -0.61682  -0.61680
 Alpha  occ. eigenvalues --   -0.59302  -0.58757  -0.58756  -0.57162  -0.55762
 Alpha  occ. eigenvalues --   -0.55759  -0.55668  -0.55325  -0.55322  -0.54551
 Alpha  occ. eigenvalues --   -0.54425  -0.54424  -0.53936  -0.53821  -0.53819
 Alpha  occ. eigenvalues --   -0.52992  -0.51991  -0.51666  -0.51662  -0.51583
 Alpha  occ. eigenvalues --   -0.51583  -0.51327  -0.51267  -0.51266  -0.49624
 Alpha  occ. eigenvalues --   -0.49578  -0.49574  -0.49410  -0.49308  -0.49305
 Alpha  occ. eigenvalues --   -0.48051  -0.47344  -0.47339  -0.46862  -0.46844
 Alpha  occ. eigenvalues --   -0.46842  -0.46513  -0.45714  -0.45712  -0.45710
 Alpha  occ. eigenvalues --   -0.45315  -0.45311  -0.44575  -0.44063  -0.44060
 Alpha  occ. eigenvalues --   -0.43754  -0.43494  -0.43491  -0.43186  -0.42932
 Alpha  occ. eigenvalues --   -0.42929  -0.41972  -0.41716  -0.41715  -0.40489
 Alpha  occ. eigenvalues --   -0.37533  -0.37528  -0.35678  -0.34922  -0.34134
 Alpha  occ. eigenvalues --   -0.34133  -0.33725  -0.33723  -0.33721  -0.33582
 Alpha  occ. eigenvalues --   -0.33580  -0.33220  -0.33175  -0.33173  -0.30284
 Alpha  occ. eigenvalues --   -0.28228  -0.28226  -0.24992
 Alpha virt. eigenvalues --    0.00614   0.00619   0.01874   0.03418   0.04514
 Alpha virt. eigenvalues --    0.04517   0.05415   0.05437   0.05438   0.05983
 Alpha virt. eigenvalues --    0.05986   0.06662   0.09221   0.09223   0.09715
 Alpha virt. eigenvalues --    0.10594   0.10596   0.11402   0.11607   0.11868
 Alpha virt. eigenvalues --    0.11869   0.12351   0.13097   0.13099   0.13994
 Alpha virt. eigenvalues --    0.14008   0.14009   0.14413   0.14623   0.14625
 Alpha virt. eigenvalues --    0.15262   0.15262   0.15344   0.15645   0.16013
 Alpha virt. eigenvalues --    0.16014   0.16927   0.17272   0.17417   0.17418
 Alpha virt. eigenvalues --    0.17606   0.17607   0.18630   0.18848   0.18849
 Alpha virt. eigenvalues --    0.19710   0.20551   0.20553   0.20957   0.20961
 Alpha virt. eigenvalues --    0.21141   0.21466   0.21468   0.22198   0.22455
 Alpha virt. eigenvalues --    0.22522   0.22526   0.23060   0.23063   0.23249
 Alpha virt. eigenvalues --    0.23650   0.23654   0.24769   0.25291   0.25886
 Alpha virt. eigenvalues --    0.25887   0.26491   0.27161   0.27264   0.27266
 Alpha virt. eigenvalues --    0.30011   0.30017   0.30682   0.30887   0.31036
 Alpha virt. eigenvalues --    0.31036   0.31842   0.31907   0.31910   0.32463
 Alpha virt. eigenvalues --    0.32465   0.32625   0.33532   0.33537   0.34890
 Alpha virt. eigenvalues --    0.34981   0.34982   0.35339   0.35642   0.35645
 Alpha virt. eigenvalues --    0.36334   0.36334   0.36342   0.37224   0.37226
 Alpha virt. eigenvalues --    0.37231   0.38263   0.38268   0.38270   0.38818
 Alpha virt. eigenvalues --    0.38821   0.38859   0.39749   0.40032   0.40038
 Alpha virt. eigenvalues --    0.40953   0.40954   0.41296   0.41612   0.41613
 Alpha virt. eigenvalues --    0.42508   0.43429   0.43714   0.43718   0.44518
 Alpha virt. eigenvalues --    0.44668   0.44673   0.45713   0.45917   0.45920
 Alpha virt. eigenvalues --    0.46211   0.46218   0.46412   0.46621   0.46623
 Alpha virt. eigenvalues --    0.46790   0.47083   0.47143   0.47144   0.47387
 Alpha virt. eigenvalues --    0.47390   0.47708   0.48053   0.48415   0.48416
 Alpha virt. eigenvalues --    0.48446   0.48734   0.48735   0.49073   0.49388
 Alpha virt. eigenvalues --    0.49390   0.49631   0.49775   0.49777   0.49868
 Alpha virt. eigenvalues --    0.50053   0.50056   0.50176   0.50575   0.50576
 Alpha virt. eigenvalues --    0.51215   0.51326   0.51327   0.51725   0.51813
 Alpha virt. eigenvalues --    0.51818   0.52217   0.52407   0.52408   0.52969
 Alpha virt. eigenvalues --    0.53293   0.53295   0.53430   0.53554   0.53555
 Alpha virt. eigenvalues --    0.53620   0.53867   0.53872   0.54418   0.54814
 Alpha virt. eigenvalues --    0.54819   0.55397   0.56200   0.56205   0.56231
 Alpha virt. eigenvalues --    0.56471   0.56472   0.57322   0.57373   0.57383
 Alpha virt. eigenvalues --    0.58142   0.58149   0.58259   0.59236   0.59381
 Alpha virt. eigenvalues --    0.59382   0.60074   0.60187   0.60188   0.60931
 Alpha virt. eigenvalues --    0.62079   0.62080   0.62111   0.62295   0.62316
 Alpha virt. eigenvalues --    0.62323   0.63339   0.63412   0.63419   0.63961
 Alpha virt. eigenvalues --    0.63970   0.63975   0.64646   0.64648   0.64825
 Alpha virt. eigenvalues --    0.65759   0.65945   0.65950   0.67197   0.67203
 Alpha virt. eigenvalues --    0.67466   0.67889   0.67891   0.67925   0.68273
 Alpha virt. eigenvalues --    0.68318   0.68321   0.68420   0.68423   0.68572
 Alpha virt. eigenvalues --    0.69105   0.69106   0.69414   0.69680   0.69688
 Alpha virt. eigenvalues --    0.70020   0.70024   0.70147   0.70528   0.70654
 Alpha virt. eigenvalues --    0.70659   0.71346   0.71459   0.71468   0.71728
 Alpha virt. eigenvalues --    0.72059   0.72064   0.72562   0.72631   0.72632
 Alpha virt. eigenvalues --    0.72791   0.72854   0.72855   0.73391   0.73621
 Alpha virt. eigenvalues --    0.73628   0.74237   0.74618   0.74630   0.75219
 Alpha virt. eigenvalues --    0.75334   0.75345   0.75516   0.76227   0.76237
 Alpha virt. eigenvalues --    0.76668   0.78458   0.78463   0.78859   0.79635
 Alpha virt. eigenvalues --    0.79643   0.81012   0.81380   0.81383   0.81519
 Alpha virt. eigenvalues --    0.81789   0.81793   0.82355   0.82523   0.82528
 Alpha virt. eigenvalues --    0.83447   0.83452   0.83625   0.83901   0.84220
 Alpha virt. eigenvalues --    0.84227   0.85400   0.85411   0.85634   0.85900
 Alpha virt. eigenvalues --    0.85901   0.86057   0.87350   0.87643   0.87646
 Alpha virt. eigenvalues --    0.87816   0.88050   0.88272   0.88274   0.88424
 Alpha virt. eigenvalues --    0.88578   0.88583   0.89992   0.90000   0.90282
 Alpha virt. eigenvalues --    0.90514   0.90520   0.90960   0.91430   0.91519
 Alpha virt. eigenvalues --    0.91531   0.92683   0.92694   0.93046   0.93071
 Alpha virt. eigenvalues --    0.93075   0.93454   0.93579   0.93580   0.93904
 Alpha virt. eigenvalues --    0.95355   0.95356   0.95922   0.95931   0.96055
 Alpha virt. eigenvalues --    0.96379   0.96385   0.96392   0.97173   0.97816
 Alpha virt. eigenvalues --    0.97827   0.99091   0.99819   0.99835   1.00722
 Alpha virt. eigenvalues --    1.01683   1.01694   1.02338   1.02444   1.02449
 Alpha virt. eigenvalues --    1.03295   1.03306   1.03313   1.03613   1.03897
 Alpha virt. eigenvalues --    1.03911   1.04536   1.04541   1.04627   1.05827
 Alpha virt. eigenvalues --    1.05839   1.06100   1.06560   1.06563   1.07011
 Alpha virt. eigenvalues --    1.08561   1.08564   1.08661   1.09568   1.09576
 Alpha virt. eigenvalues --    1.09603   1.10848   1.10851   1.11121   1.11125
 Alpha virt. eigenvalues --    1.11128   1.11841   1.11918   1.12870   1.12873
 Alpha virt. eigenvalues --    1.13988   1.13995   1.14495   1.15172   1.15187
 Alpha virt. eigenvalues --    1.15471   1.15864   1.15870   1.16161   1.16577
 Alpha virt. eigenvalues --    1.16581   1.16982   1.17052   1.17055   1.17056
 Alpha virt. eigenvalues --    1.18561   1.18572   1.18899   1.19997   1.20123
 Alpha virt. eigenvalues --    1.20124   1.20445   1.21800   1.21822   1.21974
 Alpha virt. eigenvalues --    1.22504   1.22514   1.22914   1.23706   1.23710
 Alpha virt. eigenvalues --    1.24346   1.25445   1.25462   1.29508   1.29511
 Alpha virt. eigenvalues --    1.31919   1.32327   1.32779   1.32783   1.33726
 Alpha virt. eigenvalues --    1.33731   1.33853   1.34972   1.34977   1.35515
 Alpha virt. eigenvalues --    1.36317   1.36321   1.36510   1.37457   1.39881
 Alpha virt. eigenvalues --    1.39891   1.42086   1.42109   1.42350   1.43948
 Alpha virt. eigenvalues --    1.43958   1.44510   1.47807   1.47828   1.48536
 Alpha virt. eigenvalues --    1.49417   1.49507   1.49508   1.51158   1.51425
 Alpha virt. eigenvalues --    1.51427   1.51689   1.52439   1.52448   1.52774
 Alpha virt. eigenvalues --    1.52909   1.52913   1.54455   1.54769   1.54772
 Alpha virt. eigenvalues --    1.55207   1.56239   1.56244   1.56274   1.57115
 Alpha virt. eigenvalues --    1.57483   1.57485   1.57720   1.58545   1.58555
 Alpha virt. eigenvalues --    1.59105   1.59820   1.59821   1.59847   1.60537
 Alpha virt. eigenvalues --    1.60546   1.60828   1.60836   1.60903   1.62673
 Alpha virt. eigenvalues --    1.62675   1.62933   1.63185   1.63693   1.63700
 Alpha virt. eigenvalues --    1.63840   1.63846   1.63862   1.63930   1.63931
 Alpha virt. eigenvalues --    1.64701   1.64850   1.64854   1.65080   1.65661
 Alpha virt. eigenvalues --    1.65667   1.67682   1.67702   1.67703   1.68229
 Alpha virt. eigenvalues --    1.69271   1.69274   1.69302   1.69925   1.69929
 Alpha virt. eigenvalues --    1.70230   1.70858   1.70869   1.70937   1.72193
 Alpha virt. eigenvalues --    1.72203   1.72918   1.72923   1.73190   1.73959
 Alpha virt. eigenvalues --    1.73970   1.74121   1.74217   1.75157   1.75160
 Alpha virt. eigenvalues --    1.76155   1.76158   1.76322   1.76543   1.76550
 Alpha virt. eigenvalues --    1.76869   1.78662   1.78808   1.79649   1.79654
 Alpha virt. eigenvalues --    1.79832   1.80010   1.80014   1.80954   1.80960
 Alpha virt. eigenvalues --    1.81042   1.82040   1.82450   1.82454   1.82858
 Alpha virt. eigenvalues --    1.82883   1.82890   1.83798   1.83802   1.84244
 Alpha virt. eigenvalues --    1.85075   1.85082   1.85272   1.85978   1.85980
 Alpha virt. eigenvalues --    1.86146   1.86148   1.86158   1.86676   1.87785
 Alpha virt. eigenvalues --    1.87797   1.88147   1.89693   1.89699   1.89924
 Alpha virt. eigenvalues --    1.90732   1.90740   1.91427   1.92822   1.92826
 Alpha virt. eigenvalues --    1.93227   1.94133   1.94164   1.94169   1.95915
 Alpha virt. eigenvalues --    1.95918   1.96538   1.97090   1.97355   1.97363
 Alpha virt. eigenvalues --    1.98164   1.98888   1.98892   1.99201   1.99313
 Alpha virt. eigenvalues --    1.99319   1.99905   1.99911   1.99988   2.00108
 Alpha virt. eigenvalues --    2.00111   2.00457   2.00783   2.01055   2.01058
 Alpha virt. eigenvalues --    2.01190   2.01358   2.01738   2.01742   2.01885
 Alpha virt. eigenvalues --    2.01893   2.02449   2.02457   2.02466   2.03354
 Alpha virt. eigenvalues --    2.04257   2.04262   2.05115   2.05645   2.05657
 Alpha virt. eigenvalues --    2.05832   2.05841   2.06335   2.06524   2.06529
 Alpha virt. eigenvalues --    2.06960   2.07474   2.07850   2.07852   2.08544
 Alpha virt. eigenvalues --    2.09074   2.09078   2.09353   2.09448   2.09452
 Alpha virt. eigenvalues --    2.11068   2.11083   2.11783   2.13164   2.13499
 Alpha virt. eigenvalues --    2.13503   2.15596   2.15608   2.15736   2.16271
 Alpha virt. eigenvalues --    2.16275   2.16556   2.16873   2.16874   2.17244
 Alpha virt. eigenvalues --    2.18133   2.18903   2.18907   2.20299   2.20302
 Alpha virt. eigenvalues --    2.20305   2.21183   2.22382   2.22385   2.23038
 Alpha virt. eigenvalues --    2.25521   2.25528   2.26012   2.26020   2.27106
 Alpha virt. eigenvalues --    2.28620   2.30065   2.30084   2.31097   2.31109
 Alpha virt. eigenvalues --    2.31455   2.33600   2.33609   2.36430   2.36434
 Alpha virt. eigenvalues --    2.36441   2.39090   2.39248   2.39250   2.40024
 Alpha virt. eigenvalues --    2.40028   2.40037   2.40866   2.40966   2.40968
 Alpha virt. eigenvalues --    2.41001   2.41784   2.41799   2.42699   2.44167
 Alpha virt. eigenvalues --    2.44172   2.44893   2.45495   2.45500   2.45900
 Alpha virt. eigenvalues --    2.45909   2.46013   2.48450   2.48864   2.48866
 Alpha virt. eigenvalues --    2.49399   2.49506   2.49508   2.50112   2.50606
 Alpha virt. eigenvalues --    2.50614   2.50619   2.53068   2.53742   2.53744
 Alpha virt. eigenvalues --    2.56331   2.56335   2.60680   2.62974   2.63397
 Alpha virt. eigenvalues --    2.63405   2.63819   2.63820   2.65635   2.67100
 Alpha virt. eigenvalues --    2.67111   2.67115   2.67784   2.67795   2.69114
 Alpha virt. eigenvalues --    2.69116   2.69126   2.69792   2.69963   2.69969
 Alpha virt. eigenvalues --    2.69980   2.70304   2.70305   2.70432   2.70807
 Alpha virt. eigenvalues --    2.70942   2.70942   2.71017   2.71400   2.71406
 Alpha virt. eigenvalues --    2.72458   2.72466   2.72600   2.72668   2.72671
 Alpha virt. eigenvalues --    2.73359   2.73405   2.73406   2.73796   2.74042
 Alpha virt. eigenvalues --    2.74057   2.74664   2.75008   2.75019   2.75293
 Alpha virt. eigenvalues --    2.75670   2.75676   2.76319   2.76395   2.76463
 Alpha virt. eigenvalues --    2.76466   2.77177   2.77184   2.77186   2.77743
 Alpha virt. eigenvalues --    2.77849   2.77857   2.78644   2.78649   2.79228
 Alpha virt. eigenvalues --    2.80019   2.80023   2.80217   2.81871   2.82515
 Alpha virt. eigenvalues --    2.82521   2.82623   2.83460   2.83465   2.83629
 Alpha virt. eigenvalues --    2.83697   2.83709   2.83777   2.85146   2.85152
 Alpha virt. eigenvalues --    2.85369   2.86955   2.86958   2.88056   2.88559
 Alpha virt. eigenvalues --    2.88591   2.90771   2.90814   2.92142   2.92425
 Alpha virt. eigenvalues --    2.92442   2.92863   2.93459   2.93461   2.93764
 Alpha virt. eigenvalues --    2.95932   2.95935   2.96427   2.97045   2.97048
 Alpha virt. eigenvalues --    2.97057   2.99616   3.00213   3.00216   3.00434
 Alpha virt. eigenvalues --    3.01339   3.01341   3.01407   3.01600   3.01603
 Alpha virt. eigenvalues --    3.01656   3.02948   3.03085   3.03090   3.04750
 Alpha virt. eigenvalues --    3.04766   3.04862   3.05854   3.05858   3.06620
 Alpha virt. eigenvalues --    3.08281   3.08291   3.10756   3.10846   3.10851
 Alpha virt. eigenvalues --    3.16231   3.16233   3.16252   3.18431   3.18456
 Alpha virt. eigenvalues --    3.19814   3.19823   3.21144   3.22193   3.22658
 Alpha virt. eigenvalues --    3.22660   3.24595   3.24808   3.24813   3.26728
 Alpha virt. eigenvalues --    3.27358   3.27366   3.28920   3.30523   3.30529
 Alpha virt. eigenvalues --    3.30781   3.32716   3.32722   3.38146   3.38216
 Alpha virt. eigenvalues --    3.38218   3.41874   3.42318   3.42324   3.43451
 Alpha virt. eigenvalues --    3.44747   3.45238   3.45242   3.45454   3.45457
 Alpha virt. eigenvalues --    3.45879   3.47195   3.47287   3.47290   3.47407
 Alpha virt. eigenvalues --    3.48253   3.48260   3.50936   3.50940   3.54098
 Alpha virt. eigenvalues --    3.54121   3.56622   3.57328   3.57329   3.57364
 Alpha virt. eigenvalues --    3.58175   3.58180   3.58182   3.58909   3.60512
 Alpha virt. eigenvalues --    3.60518   3.65729   3.65897   3.65903   3.69988
 Alpha virt. eigenvalues --    3.70159   3.70170   3.71460   3.71645   3.71649
 Alpha virt. eigenvalues --    3.73776   3.74107   3.74114   3.82260   3.82271
 Alpha virt. eigenvalues --    3.82286   3.91168   3.91178   3.91841   3.97637
 Alpha virt. eigenvalues --    3.97650   4.06306   4.06339   4.06339   4.06557
 Alpha virt. eigenvalues --    4.07843   4.07849   4.12598   4.12623   4.12624
 Alpha virt. eigenvalues --    4.14137   4.20968   4.21371   4.21373   4.21438
 Alpha virt. eigenvalues --    4.22085   4.22096   4.23154   4.23443   4.23444
 Alpha virt. eigenvalues --    4.24984   4.25203   4.25208   4.25338   4.27771
 Alpha virt. eigenvalues --    4.28163   4.28171   4.48392   4.48454   4.48463
 Alpha virt. eigenvalues --    4.70439   4.70450   4.70467   4.93826   4.93828
 Alpha virt. eigenvalues --    4.93844   4.94344   4.94349   4.94729   5.23263
 Alpha virt. eigenvalues --    5.23322   7.91899   7.91903   7.91950  17.35765
 Alpha virt. eigenvalues --   17.35768  17.35787  17.61416  17.61451  17.61455
 Alpha virt. eigenvalues --   17.64154  17.64156  17.64173  23.56862  23.59389
 Alpha virt. eigenvalues --   23.59392  23.69866  23.71633  23.71636  23.80090
 Alpha virt. eigenvalues --   23.80539  23.80543  23.93906  23.93955  23.93955
 Alpha virt. eigenvalues --   24.04841  24.05594  24.05599  24.06059  24.06074
 Alpha virt. eigenvalues --   24.06078  24.06267  24.06271  24.06384  24.07147
 Alpha virt. eigenvalues --   24.07148  24.07150  24.17421  24.17822  24.17825
 Alpha virt. eigenvalues --   24.20296  24.20299  24.20303  24.24164  24.24167
 Alpha virt. eigenvalues --   24.24173  24.24410  24.24414  24.24419  24.25023
 Alpha virt. eigenvalues --   24.25968  24.25975  24.29441  24.29443  24.29468
 Alpha virt. eigenvalues --   24.32290  24.32296  24.32640  24.33372  24.33373
 Alpha virt. eigenvalues --   24.33379  35.79298 189.11937 189.11941 189.11992
          Condensed to atoms (all electrons):
 Mulliken charges:
               1
     1  N   -0.521091
     2  C    0.125216
     3  C   -0.104537
     4  C   -0.112175
     5  C    0.001999
     6  C   -0.071030
     7  C   -0.104783
     8  H    0.130633
     9  H    0.124320
    10  H    0.114111
    11  H    0.130800
    12  C    0.123900
    13  C   -0.104042
    14  C   -0.112278
    15  C    0.002220
    16  C   -0.070980
    17  C   -0.104277
    18  H    0.130532
    19  H    0.124423
    20  H    0.114144
    21  H    0.130741
    22  C    0.124484
    23  C   -0.104500
    24  C   -0.071011
    25  C    0.001929
    26  C   -0.112117
    27  C   -0.104192
    28  H    0.130735
    29  H    0.114133
    30  H    0.124376
    31  H    0.130591
    32  C   -0.270433
    33  C   -0.060421
    34  S    0.312875
    35  C   -0.059515
    36  H    0.115429
    37  C   -0.269521
    38  H    0.116358
    39  C   -0.001466
    40  C   -0.115677
    41  C   -0.075908
    42  C   -0.107487
    43  H    0.122666
    44  C   -0.108574
    45  H    0.112602
    46  C   -0.103441
    47  H    0.110507
    48  H    0.110479
    49  H    0.110728
    50  C   -0.270605
    51  C   -0.060338
    52  S    0.312962
    53  C   -0.059495
    54  H    0.115434
    55  C   -0.269582
    56  H    0.116328
    57  C   -0.001193
    58  C   -0.115853
    59  C   -0.075854
    60  C   -0.107472
    61  H    0.122678
    62  C   -0.108616
    63  H    0.112563
    64  C   -0.103418
    65  H    0.110501
    66  H    0.110477
    67  H    0.110728
    68  C   -0.270462
    69  C   -0.060407
    70  S    0.312900
    71  C   -0.059448
    72  H    0.115452
    73  C   -0.269523
    74  H    0.116341
    75  C   -0.001493
    76  C   -0.115660
    77  C   -0.075821
    78  C   -0.107516
    79  H    0.122670
    80  C   -0.108627
    81  H    0.112568
    82  C   -0.103402
    83  H    0.110498
    84  H    0.110480
    85  H    0.110729
 Sum of Mulliken charges =   0.00000
 Mulliken charges with hydrogens summed into heavy atoms:
               1
     1  N   -0.521091
     2  C    0.125216
     3  C    0.026095
     4  C    0.012145
     5  C    0.001999
     6  C    0.043081
     7  C    0.026017
    12  C    0.123900
    13  C    0.026490
    14  C    0.012145
    15  C    0.002220
    16  C    0.043164
    17  C    0.026463
    22  C    0.124484
    23  C    0.026235
    24  C    0.043122
    25  C    0.001929
    26  C    0.012259
    27  C    0.026399
    32  C   -0.270433
    33  C    0.055008
    34  S    0.312875
    35  C    0.056843
    37  C   -0.269521
    39  C   -0.001466
    40  C    0.006989
    41  C    0.036694
    42  C    0.003019
    44  C    0.001905
    46  C    0.007287
    50  C   -0.270605
    51  C    0.055096
    52  S    0.312962
    53  C    0.056833
    55  C   -0.269582
    57  C   -0.001193
    58  C    0.006826
    59  C    0.036709
    60  C    0.003028
    62  C    0.001861
    64  C    0.007310
    68  C   -0.270462
    69  C    0.055044
    70  S    0.312900
    71  C    0.056893
    73  C   -0.269523
    75  C   -0.001493
    76  C    0.007010
    77  C    0.036747
    78  C    0.002983
    80  C    0.001853
    82  C    0.007327
 Electronic spatial extent (au):  <R**2>=          80729.6469
 Charge=              0.0000 electrons
 Dipole moment (field-independent basis, Debye):
    X=              0.0092    Y=              0.0054    Z=              0.1669  Tot=              0.1673
 Quadrupole moment (field-independent basis, Debye-Ang):
   XX=           -281.4098   YY=           -281.3949   ZZ=           -329.2778
   XY=              0.0156   XZ=             -0.1554   YZ=              0.1099
 Traceless Quadrupole moment (field-independent basis, Debye-Ang):
   XX=             15.9510   YY=             15.9659   ZZ=            -31.9169
   XY=              0.0156   XZ=             -0.1554   YZ=              0.1099
 Octapole moment (field-independent basis, Debye-Ang**2):
  XXX=           -107.3289  YYY=            -21.4773  ZZZ=            -98.4613  XYY=            110.6009
  XXY=             22.1008  XXZ=            -67.8655  XZZ=              0.8720  YZZ=             -0.3676
  YYZ=            -67.4412  XYZ=              0.0097
 Hexadecapole moment (field-independent basis, Debye-Ang**3):
 XXXX=         -49398.0767 YYYY=         -49270.2550 ZZZZ=           -952.7874 XXXY=              4.8758
 XXXZ=            699.0955 YYYX=              0.0217 YYYZ=           -557.6158 ZZZX=             77.5694
 ZZZY=            -33.2841 XXYY=         -16454.7330 XXZZ=         -10130.2562 YYZZ=         -10101.0565
 XXYZ=            533.6406 YYXZ=           -633.0051 ZZXY=             -6.2353
 N-N= 5.929103375731D+03 E-N=-1.911700142537D+04  KE= 3.088889306113D+03
 No NMR shielding tensors so no spin-rotation constants.
 Leave Link  601 at Tue Jun 15 15:38:57 2021, MaxMem=  7864320000 cpu:               1.1 elap:               1.1
 (Enter /sw/linux/gaussian/g16/g16/l602.exe)
 FitSet:  NAtFit=    85 NAtPot=    85 NAtFrz=     0 MDM=    89 TotChg=   0.00000
 Merz-Kollman atomic radii used.

 **********************************************************************

            Electrostatic Properties Using The SCF Density.

 **********************************************************************

       Atomic Center    1 is at  -0.006450  0.001200  0.173050
       Atomic Center    2 is at  -1.415810 -0.094410  0.179300
       Atomic Center    3 is at  -2.190090  0.767580 -0.598910
       Atomic Center    4 is at  -3.571410  0.675390 -0.585370
       Atomic Center    5 is at  -4.225020 -0.283710  0.193000
       Atomic Center    6 is at  -3.440850 -1.142250  0.969270
       Atomic Center    7 is at  -2.060080 -1.050480  0.967210
       Atomic Center    8 is at  -1.702020  1.508570 -1.220870
       Atomic Center    9 is at  -4.149920  1.340620 -1.217200
       Atomic Center   10 is at  -3.923240 -1.871290  1.610520
       Atomic Center   11 is at  -1.470780 -1.716530  1.586340
       Atomic Center   12 is at   0.615650  1.269620  0.174220
       Atomic Center   13 is at   1.742790  1.508940 -0.613390
       Atomic Center   14 is at   2.354750  2.750750 -0.603790
       Atomic Center   15 is at   1.858320  3.795900  0.179920
       Atomic Center   16 is at   0.728540  3.546610  0.964860
       Atomic Center   17 is at   0.116610  2.305400  0.966680
       Atomic Center   18 is at   2.134580  0.715900 -1.239240
       Atomic Center   19 is at   3.215020  2.919020 -1.242550
       Atomic Center   20 is at   0.344240  4.328770  1.609780
       Atomic Center   21 is at  -0.750130  2.128040  1.592430
       Atomic Center   22 is at   0.781580 -1.171300  0.172520
       Atomic Center   23 is at   1.933400 -1.253580  0.957650
       Atomic Center   24 is at   2.704390 -2.402720  0.953120
       Atomic Center   25 is at   2.352280 -3.508030  0.172810
       Atomic Center   26 is at   1.193110 -3.419280 -0.602670
       Atomic Center   27 is at   0.421560 -2.269760 -0.609690
       Atomic Center   28 is at   2.216120 -0.412530  1.579690
       Atomic Center   29 is at   3.578480 -2.457860  1.592110
       Atomic Center   30 is at   0.905700 -4.250470 -1.237450
       Atomic Center   31 is at  -0.465550 -2.215690 -1.229550
       Atomic Center   32 is at  -5.687670 -0.409090  0.201010
       Atomic Center   33 is at  -6.436450 -1.544490  0.339420
       Atomic Center   34 is at  -6.718310  0.976490  0.030890
       Atomic Center   35 is at  -7.834010 -1.305180  0.309530
       Atomic Center   36 is at  -5.995460 -2.527600  0.440840
       Atomic Center   37 is at  -8.156630  0.012770  0.146300
       Atomic Center   38 is at  -8.580910 -2.080220  0.422290
       Atomic Center   39 is at  -9.495070  0.615270  0.064350
       Atomic Center   40 is at  -9.758320  1.883690  0.589270
       Atomic Center   41 is at -10.540830 -0.088720 -0.540580
       Atomic Center   42 is at -11.031340  2.430780  0.512400
       Atomic Center   43 is at  -8.964200  2.437770  1.077940
       Atomic Center   44 is at -11.815220  0.455400 -0.605860
       Atomic Center   45 is at -10.344260 -1.060480 -0.979270
       Atomic Center   46 is at -12.065620  1.718110 -0.081660
       Atomic Center   47 is at -11.217350  3.414950  0.927150
       Atomic Center   48 is at -12.613650 -0.104360 -1.079740
       Atomic Center   49 is at -13.060190  2.145150 -0.138520
       Atomic Center   50 is at   2.483650  5.124110  0.185080
       Atomic Center   51 is at   1.878810  6.341620  0.329050
       Atomic Center   52 is at   4.198320  5.319740  0.003600
       Atomic Center   53 is at   2.787400  7.429980  0.294480
       Atomic Center   54 is at   0.807920  6.453880  0.437920
       Atomic Center   55 is at   4.088020  7.047420  0.122070
       Atomic Center   56 is at   2.492950  8.464920  0.410570
       Atomic Center   57 is at   5.280830  7.902160  0.034110
       Atomic Center   58 is at   6.513670  7.490120  0.547980
       Atomic Center   59 is at   5.193390  9.162460 -0.565150
       Atomic Center   60 is at   7.625970  8.315840  0.466030
       Atomic Center   61 is at   6.597280  6.523110  1.032050
       Atomic Center   62 is at   6.303920  9.990880 -0.635420
       Atomic Center   63 is at   4.251290  9.482920 -0.995440
       Atomic Center   64 is at   7.525320  9.570600 -0.122160
       Atomic Center   65 is at   8.573380  7.980140  0.872150
       Atomic Center   66 is at   6.217700 10.964440 -1.104610
       Atomic Center   67 is at   8.393930 10.216050 -0.182880
       Atomic Center   68 is at   3.193290 -4.711300  0.173340
       Atomic Center   69 is at   4.551540 -4.791530  0.305860
       Atomic Center   70 is at   2.509130 -6.296510 -0.000100
       Atomic Center   71 is at   5.044010 -6.120970  0.268730
       Atomic Center   72 is at   5.182140 -3.917910  0.407960
       Atomic Center   73 is at   4.064040 -7.059520  0.105930
       Atomic Center   74 is at   6.089340 -6.379860  0.376070
       Atomic Center   75 is at   4.212090 -8.519480  0.018090
       Atomic Center   76 is at   3.247300 -9.384110  0.542800
       Atomic Center   77 is at   5.343000 -9.070480 -0.592250
       Atomic Center   78 is at   3.410400-10.759720  0.460460
       Atomic Center   79 is at   2.371590 -8.975800  1.035570
       Atomic Center   80 is at   5.509430-10.445880 -0.662980
       Atomic Center   81 is at   6.084680 -8.412480 -1.030830
       Atomic Center   82 is at   4.543140-11.296480 -0.138890
       Atomic Center   83 is at   2.652610-11.414720  0.875150
       Atomic Center   84 is at   6.392240-10.855270 -1.140920
       Atomic Center   85 is at   4.670960-12.371050 -0.199980
    3411 points will be used for fitting atomic charges
 Fitting point charges to electrostatic potential
 Charges from ESP fit, RMS=   0.00146 RRMS=   0.15370:
 ESP charges:
               1
     1  N   -0.486455
     2  C    0.349662
     3  C   -0.264695
     4  C   -0.135960
     5  C    0.087697
     6  C   -0.160425
     7  C   -0.273421
     8  H    0.169520
     9  H    0.142071
    10  H    0.145863
    11  H    0.177292
    12  C    0.323483
    13  C   -0.268300
    14  C   -0.122355
    15  C    0.084386
    16  C   -0.160424
    17  C   -0.254646
    18  H    0.171839
    19  H    0.137123
    20  H    0.144156
    21  H    0.172893
    22  C    0.351549
    23  C   -0.277780
    24  C   -0.157008
    25  C    0.097134
    26  C   -0.137202
    27  C   -0.271810
    28  H    0.180301
    29  H    0.142943
    30  H    0.142723
    31  H    0.171023
    32  C   -0.020268
    33  C   -0.212405
    34  S   -0.013333
    35  C   -0.130914
    36  H    0.161487
    37  C   -0.091327
    38  H    0.143980
    39  C    0.127459
    40  C   -0.095513
    41  C   -0.159306
    42  C   -0.181284
    43  H    0.120823
    44  C   -0.167726
    45  H    0.137224
    46  C   -0.110608
    47  H    0.144459
    48  H    0.144675
    49  H    0.130728
    50  C   -0.036255
    51  C   -0.189483
    52  S   -0.006475
    53  C   -0.144752
    54  H    0.156671
    55  C   -0.089183
    56  H    0.145693
    57  C    0.146594
    58  C   -0.131962
    59  C   -0.173288
    60  C   -0.163502
    61  H    0.129432
    62  C   -0.148009
    63  H    0.138985
    64  C   -0.116832
    65  H    0.142335
    66  H    0.138734
    67  H    0.128525
    68  C   -0.038047
    69  C   -0.193700
    70  S   -0.007602
    71  C   -0.136818
    72  H    0.157635
    73  C   -0.096234
    74  H    0.144203
    75  C    0.153063
    76  C   -0.136216
    77  C   -0.165461
    78  C   -0.164895
    79  H    0.131813
    80  C   -0.144360
    81  H    0.133676
    82  C   -0.136874
    83  H    0.146331
    84  H    0.139330
    85  H    0.137597
 Sum of ESP charges =   0.00000
 ESP charges with hydrogens summed into heavy atoms:
               1
     1  N   -0.486455
     2  C    0.349662
     3  C   -0.095174
     4  C    0.006111
     5  C    0.087697
     6  C   -0.014562
     7  C   -0.096129
    12  C    0.323483
    13  C   -0.096461
    14  C    0.014768
    15  C    0.084386
    16  C   -0.016267
    17  C   -0.081753
    22  C    0.351549
    23  C   -0.097479
    24  C   -0.014065
    25  C    0.097134
    26  C    0.005520
    27  C   -0.100786
    32  C   -0.020268
    33  C   -0.050917
    34  S   -0.013333
    35  C    0.013067
    37  C   -0.091327
    39  C    0.127459
    40  C    0.025310
    41  C   -0.022082
    42  C   -0.036825
    44  C   -0.023051
    46  C    0.020120
    50  C   -0.036255
    51  C   -0.032811
    52  S   -0.006475
    53  C    0.000941
    55  C   -0.089183
    57  C    0.146594
    58  C   -0.002530
    59  C   -0.034303
    60  C   -0.021167
    62  C   -0.009275
    64  C    0.011693
    68  C   -0.038047
    69  C   -0.036065
    70  S   -0.007602
    71  C    0.007385
    73  C   -0.096234
    75  C    0.153063
    76  C   -0.004402
    77  C   -0.031786
    78  C   -0.018564
    80  C   -0.005031
    82  C    0.000723
 Charge=   0.00000 Dipole=     0.0064     0.0136     0.2607 Tot=     0.2612
 -----------------------------------------------------------------

              Electrostatic Properties (Atomic Units)

 -----------------------------------------------------------------
    Center     Electric         -------- Electric Field --------
               Potential          X             Y             Z
 -----------------------------------------------------------------
    1 Atom    -18.351016
    2 Atom    -14.723004
    3 Atom    -14.769592
    4 Atom    -14.766338
    5 Atom    -14.753234
    6 Atom    -14.766367
    7 Atom    -14.769482
    8 Atom     -1.098283
    9 Atom     -1.098775
   10 Atom     -1.099602
   11 Atom     -1.098078
   12 Atom    -14.723012
   13 Atom    -14.769529
   14 Atom    -14.766292
   15 Atom    -14.753133
   16 Atom    -14.766287
   17 Atom    -14.769399
   18 Atom     -1.098230
   19 Atom     -1.098714
   20 Atom     -1.099533
   21 Atom     -1.098004
   22 Atom    -14.723011
   23 Atom    -14.769468
   24 Atom    -14.766347
   25 Atom    -14.753197
   26 Atom    -14.766316
   27 Atom    -14.769552
   28 Atom     -1.098069
   29 Atom     -1.099588
   30 Atom     -1.098758
   31 Atom     -1.098257
   32 Atom    -14.739564
   33 Atom    -14.773153
   34 Atom    -59.222218
   35 Atom    -14.772923
   36 Atom     -1.094874
   37 Atom    -14.740370
   38 Atom     -1.094967
   39 Atom    -14.752202
   40 Atom    -14.770497
   41 Atom    -14.770516
   42 Atom    -14.770771
   43 Atom     -1.101728
   44 Atom    -14.770688
   45 Atom     -1.102587
   46 Atom    -14.771868
   47 Atom     -1.103791
   48 Atom     -1.103523
   49 Atom     -1.104070
   50 Atom    -14.739508
   51 Atom    -14.773086
   52 Atom    -59.222191
   53 Atom    -14.772873
   54 Atom     -1.094812
   55 Atom    -14.740315
   56 Atom     -1.094914
   57 Atom    -14.752164
   58 Atom    -14.770483
   59 Atom    -14.770476
   60 Atom    -14.770752
   61 Atom     -1.101700
   62 Atom    -14.770662
   63 Atom     -1.102540
   64 Atom    -14.771850
   65 Atom     -1.103768
   66 Atom     -1.103509
   67 Atom     -1.104046
   68 Atom    -14.739550
   69 Atom    -14.773127
   70 Atom    -59.222204
   71 Atom    -14.772896
   72 Atom     -1.094849
   73 Atom    -14.740342
   74 Atom     -1.094936
   75 Atom    -14.752187
   76 Atom    -14.770499
   77 Atom    -14.770503
   78 Atom    -14.770775
   79 Atom     -1.101721
   80 Atom    -14.770679
   81 Atom     -1.102576
   82 Atom    -14.771865
   83 Atom     -1.103790
   84 Atom     -1.103517
   85 Atom     -1.104055
 -----------------------------------------------------------------
 Leave Link  602 at Tue Jun 15 15:38:59 2021, MaxMem=  7864320000 cpu:               2.1 elap:               2.2
 (Enter /sw/linux/gaussian/g16/g16/l9999.exe)
 1\1\GINC-THINC347\SP\RwB97XD\6-311G(d,p)\C48H33N1S3\LINK\15-Jun-2021\0
 \\#P wb97xd/6-311g(d,p) nosymm pop=MK\\Title Card Required\\0,1\N,0,-0
 .00645,0.0012,0.17305\C,0,-1.41581,-0.09441,0.1793\C,0,-2.19009,0.7675
 8,-0.59891\C,0,-3.57141,0.67539,-0.58537\C,0,-4.22502,-0.28371,0.193\C
 ,0,-3.44085,-1.14225,0.96927\C,0,-2.06008,-1.05048,0.96721\H,0,-1.7020
 2,1.50857,-1.22087\H,0,-4.14992,1.34062,-1.2172\H,0,-3.92324,-1.87129,
 1.61052\H,0,-1.47078,-1.71653,1.58634\C,0,0.61565,1.26962,0.17422\C,0,
 1.74279,1.50894,-0.61339\C,0,2.35475,2.75075,-0.60379\C,0,1.85832,3.79
 59,0.17992\C,0,0.72854,3.54661,0.96486\C,0,0.11661,2.3054,0.96668\H,0,
 2.13458,0.7159,-1.23924\H,0,3.21502,2.91902,-1.24255\H,0,0.34424,4.328
 77,1.60978\H,0,-0.75013,2.12804,1.59243\C,0,0.78158,-1.1713,0.17252\C,
 0,1.9334,-1.25358,0.95765\C,0,2.70439,-2.40272,0.95312\C,0,2.35228,-3.
 50803,0.17281\C,0,1.19311,-3.41928,-0.60267\C,0,0.42156,-2.26976,-0.60
 969\H,0,2.21612,-0.41253,1.57969\H,0,3.57848,-2.45786,1.59211\H,0,0.90
 57,-4.25047,-1.23745\H,0,-0.46555,-2.21569,-1.22955\C,0,-5.68767,-0.40
 909,0.20101\C,0,-6.43645,-1.54449,0.33942\S,0,-6.71831,0.97649,0.03089
 \C,0,-7.83401,-1.30518,0.30953\H,0,-5.99546,-2.5276,0.44084\C,0,-8.156
 63,0.01277,0.1463\H,0,-8.58091,-2.08022,0.42229\C,0,-9.49507,0.61527,0
 .06435\C,0,-9.75832,1.88369,0.58927\C,0,-10.54083,-0.08872,-0.54058\C,
 0,-11.03134,2.43078,0.5124\H,0,-8.9642,2.43777,1.07794\C,0,-11.81522,0
 .4554,-0.60586\H,0,-10.34426,-1.06048,-0.97927\C,0,-12.06562,1.71811,-
 0.08166\H,0,-11.21735,3.41495,0.92715\H,0,-12.61365,-0.10436,-1.07974\
 H,0,-13.06019,2.14515,-0.13852\C,0,2.48365,5.12411,0.18508\C,0,1.87881
 ,6.34162,0.32905\S,0,4.19832,5.31974,0.0036\C,0,2.7874,7.42998,0.29448
 \H,0,0.80792,6.45388,0.43792\C,0,4.08802,7.04742,0.12207\H,0,2.49295,8
 .46492,0.41057\C,0,5.28083,7.90216,0.03411\C,0,6.51367,7.49012,0.54798
 \C,0,5.19339,9.16246,-0.56515\C,0,7.62597,8.31584,0.46603\H,0,6.59728,
 6.52311,1.03205\C,0,6.30392,9.99088,-0.63542\H,0,4.25129,9.48292,-0.99
 544\C,0,7.52532,9.5706,-0.12216\H,0,8.57338,7.98014,0.87215\H,0,6.2177
 ,10.96444,-1.10461\H,0,8.39393,10.21605,-0.18288\C,0,3.19329,-4.7113,0
 .17334\C,0,4.55154,-4.79153,0.30586\S,0,2.50913,-6.29651,-0.0001\C,0,5
 .04401,-6.12097,0.26873\H,0,5.18214,-3.91791,0.40796\C,0,4.06404,-7.05
 952,0.10593\H,0,6.08934,-6.37986,0.37607\C,0,4.21209,-8.51948,0.01809\
 C,0,3.2473,-9.38411,0.5428\C,0,5.343,-9.07048,-0.59225\C,0,3.4104,-10.
 75972,0.46046\H,0,2.37159,-8.9758,1.03557\C,0,5.50943,-10.44588,-0.662
 98\H,0,6.08468,-8.41248,-1.03083\C,0,4.54314,-11.29648,-0.13889\H,0,2.
 65261,-11.41472,0.87515\H,0,6.39224,-10.85527,-1.14092\H,0,4.67096,-12
 .37105,-0.19998\\Version=ES64L-G16RevB.01\HF=-3098.1018919\RMSD=2.685e
 -09\Dipole=0.0036111,0.0021354,0.0656704\Quadrupole=11.859179,11.87029
 04,-23.7294694,0.0116166,-0.1155195,0.0817188\PG=C01 [X(C48H33N1S3)]\\
 @


 MATERIAL COPIED FROM ONE SCHOLARLY BOOK WITHOUT CREDIT COMPRISES PLAGIARISM.
 MATERIAL COPIED FROM TWO SCHOLARLY BOOKS COMPRISES AN ESSAY.
 MATERIAL COPIED FROM THREE SCHOLARLY BOOKS COMPRISES A DISSERTATION.
 MATERIAL COPIED FROM FOUR SCHOLARLY BOOKS COMPRISES A FIFTH SCHOLARLY BOOK.

                               -- C&EN, 25 FEB 1980
 Job cpu time:       0 days  0 hours 52 minutes 31.3 seconds.
 Elapsed time:       0 days  0 hours 52 minutes 31.4 seconds.
 File lengths (MBytes):  RWF=    724 Int=      0 D2E=      0 Chk=     78 Scr=      1
 Normal termination of Gaussian 16 at Tue Jun 15 15:38:59 2021.
