 Entering Gaussian System, Link 0=g16
 Input=MK.com
 Output=MK.log
 Initial command:
 /sw/linux/gaussian/g16/g16/l1.exe "/usr/scratch/link/Gau-3371.inp" -scrdir="/usr/scratch/link/"
 Entering Link 1 = /sw/linux/gaussian/g16/g16/l1.exe PID=      3373.
  
 Copyright (c) 1988-2017, Gaussian, Inc.  All Rights Reserved.
  
 This is part of the Gaussian(R) 16 program.  It is based on
 the Gaussian(R) 09 system (copyright 2009, Gaussian, Inc.),
 the Gaussian(R) 03 system (copyright 2003, Gaussian, Inc.),
 the Gaussian(R) 98 system (copyright 1998, Gaussian, Inc.),
 the Gaussian(R) 94 system (copyright 1995, Gaussian, Inc.),
 the Gaussian 92(TM) system (copyright 1992, Gaussian, Inc.),
 the Gaussian 90(TM) system (copyright 1990, Gaussian, Inc.),
 the Gaussian 88(TM) system (copyright 1988, Gaussian, Inc.),
 the Gaussian 86(TM) system (copyright 1986, Carnegie Mellon
 University), and the Gaussian 82(TM) system (copyright 1983,
 Carnegie Mellon University). Gaussian is a federally registered
 trademark of Gaussian, Inc.
  
 This software contains proprietary and confidential information,
 including trade secrets, belonging to Gaussian, Inc.
  
 This software is provided under written license and may be
 used, copied, transmitted, or stored only in accord with that
 written license.
  
 The following legend is applicable only to US Government
 contracts under FAR:
  
                    RESTRICTED RIGHTS LEGEND
  
 Use, reproduction and disclosure by the US Government is
 subject to restrictions as set forth in subparagraphs (a)
 and (c) of the Commercial Computer Software - Restricted
 Rights clause in FAR 52.227-19.
  
 Gaussian, Inc.
 340 Quinnipiac St., Bldg. 40, Wallingford CT 06492
  
  
 ---------------------------------------------------------------
 Warning -- This program may not be used in any manner that
 competes with the business of Gaussian, Inc. or will provide
 assistance to any competitor of Gaussian, Inc.  The licensee
 of this program is prohibited from giving any competitor of
 Gaussian, Inc. access to this program.  By using this program,
 the user acknowledges that Gaussian, Inc. is engaged in the
 business of creating and licensing software in the field of
 computational chemistry and represents and warrants to the
 licensee that it is not a competitor of Gaussian, Inc. and that
 it will not use this program in any manner prohibited above.
 ---------------------------------------------------------------
  

 Cite this work as:
 Gaussian 16, Revision B.01,
 M. J. Frisch, G. W. Trucks, H. B. Schlegel, G. E. Scuseria, 
 M. A. Robb, J. R. Cheeseman, G. Scalmani, V. Barone, 
 G. A. Petersson, H. Nakatsuji, X. Li, M. Caricato, A. V. Marenich, 
 J. Bloino, B. G. Janesko, R. Gomperts, B. Mennucci, H. P. Hratchian, 
 J. V. Ortiz, A. F. Izmaylov, J. L. Sonnenberg, D. Williams-Young, 
 F. Ding, F. Lipparini, F. Egidi, J. Goings, B. Peng, A. Petrone, 
 T. Henderson, D. Ranasinghe, V. G. Zakrzewski, J. Gao, N. Rega, 
 G. Zheng, W. Liang, M. Hada, M. Ehara, K. Toyota, R. Fukuda, 
 J. Hasegawa, M. Ishida, T. Nakajima, Y. Honda, O. Kitao, H. Nakai, 
 T. Vreven, K. Throssell, J. A. Montgomery, Jr., J. E. Peralta, 
 F. Ogliaro, M. J. Bearpark, J. J. Heyd, E. N. Brothers, K. N. Kudin, 
 V. N. Staroverov, T. A. Keith, R. Kobayashi, J. Normand, 
 K. Raghavachari, A. P. Rendell, J. C. Burant, S. S. Iyengar, 
 J. Tomasi, M. Cossi, J. M. Millam, M. Klene, C. Adamo, R. Cammi, 
 J. W. Ochterski, R. L. Martin, K. Morokuma, O. Farkas, 
 J. B. Foresman, and D. J. Fox, Gaussian, Inc., Wallingford CT, 2016.
 
 ******************************************
 Gaussian 16:  ES64L-G16RevB.01 20-Dec-2017
                15-Jun-2021 
 ******************************************
 %mem=60000MB
 -----------------------------------
 #P wb97xd/6-311g(d,p) nosymm pop=MK
 -----------------------------------
 1/38=1,172=1/1;
 2/12=2,15=1,17=6,18=5,40=1/2;
 3/5=4,6=6,7=101,11=2,25=1,30=1,74=-58/1,2,3;
 4//1;
 5/5=2,38=5/2;
 6/7=2,8=2,9=2,10=2,15=8,20=1,28=1/1,2;
 99/5=1,9=1/99;
 Leave Link    1 at Tue Jun 15 14:45:15 2021, MaxMem=  7864320000 cpu:               0.0 elap:               0.0
 (Enter /sw/linux/gaussian/g16/g16/l101.exe)
 -------------------
 Title Card Required
 -------------------
 Symbolic Z-matrix:
 Charge =  0 Multiplicity = 1
 N                    -2.57988   0.66434  -0.3821 
 C                    -3.75189  -0.03364  -0.67229 
 C                    -4.71538   0.27018   0.30662 
 C                    -4.09573   1.19488   1.23273 
 C                    -2.78267   1.41171   0.77642 
 C                    -4.01373  -0.93332  -1.70332 
 C                    -5.27413  -1.50825  -1.74647 
 C                    -6.24988  -1.20456  -0.79039 
 C                    -5.97527  -0.32069   0.24015 
 C                    -4.54483   1.85069   2.37682 
 C                    -3.6841    2.7094    3.04005 
 C                    -2.38577   2.92457   2.5641 
 C                    -1.91605   2.28516   1.42772 
 H                    -3.26452  -1.18562  -2.44449 
 H                    -5.50391  -2.21196  -2.53855 
 H                    -7.22572  -1.67081  -0.85609 
 H                    -6.72716  -0.09378   0.98766 
 H                    -5.55467   1.69279   2.73864 
 H                    -4.01776   3.2258    3.93217 
 H                    -1.73169   3.60923   3.09153 
 H                    -0.91464   2.47072   1.05912 
 C                    -0.18287   0.27775  -0.5104 
 C                     0.97982   0.151    -1.26415 
 C                     0.93587   0.29969  -2.64987 
 C                    -0.27156   0.62873  -3.23876 
 C                    -1.39147   0.58444  -1.13175 
 C                    -1.43388   0.797    -2.50403 
 H                    -0.14934   0.13034   0.5621 
 H                     1.82335   0.1632   -3.25538 
 H                    -2.35959   1.08698  -2.98462 
 N                     2.19788  -0.1612   -0.63024 
 C                     3.39079   0.54821  -0.77114 
 C                     4.3768   -0.05798   0.02807 
 C                     3.7523   -1.18951   0.68012 
 C                     2.41288  -1.22047   0.25058 
 C                     3.65572   1.69292  -1.51809 
 C                     4.94024   2.21044  -1.46235 
 C                     5.93634   1.61311  -0.68171 
 C                     5.66037   0.48202   0.06821 
 C                     4.21722  -2.16413   1.56013 
 C                     3.34645  -3.15136   1.99092 
 C                     2.02149  -3.17687   1.54185 
 C                     1.53537  -2.21865   0.66612 
 H                     2.89171   2.16825  -2.12083 
 H                     5.17468   3.09871  -2.03743 
 H                     6.93023   2.04413  -0.6634 
 H                     6.4291    0.02372   0.68032 
 H                     5.24733  -2.15032   1.89827 
 H                     3.69257  -3.91513   2.67707 
 H                     1.35832  -3.96364   1.8826 
 H                     0.5113   -2.2557    0.31541 
 S                    -0.37676   0.74703  -5.02454 
 C                    -1.18458  -0.79816  -5.42347 
 C                    -2.57072  -0.82905  -5.50921 
 C                    -0.41434  -1.94271  -5.58088 
 C                    -3.19878  -2.04376  -5.75111 
 H                    -3.13911   0.08737  -5.40575 
 C                    -1.05437  -3.15018  -5.825 
 H                     0.66581  -1.88008  -5.5266 
 C                    -2.44205  -3.20045  -5.90372 
 H                    -4.27893  -2.08422  -5.82689 
 H                    -0.46886  -4.05222  -5.95636 
 H                    -2.93629  -4.14642  -6.0925 
 O                    -1.29573   1.82412  -5.34686 
 O                     0.97871   0.70921  -5.54477 
 
 ITRead=  0  0  0  0  0  0  0  0  0  0  0  0  0  0  0  0  0  0  0  0
 ITRead=  0  0  0  0  0  0  0  0  0  0  0  0  0  0  0  0  0  0  0  0
 ITRead=  0  0  0  0  0  0  0  0  0  0  0  0  0  0  0  0  0  0  0  0
 ITRead=  0  0  0  0  0
 MicOpt= -1 -1 -1 -1 -1 -1 -1 -1 -1 -1 -1 -1 -1 -1 -1 -1 -1 -1 -1 -1
 MicOpt= -1 -1 -1 -1 -1 -1 -1 -1 -1 -1 -1 -1 -1 -1 -1 -1 -1 -1 -1 -1
 MicOpt= -1 -1 -1 -1 -1 -1 -1 -1 -1 -1 -1 -1 -1 -1 -1 -1 -1 -1 -1 -1
 MicOpt= -1 -1 -1 -1 -1
 NAtoms=     65 NQM=       65 NQMF=       0 NMMI=      0 NMMIF=      0
                NMic=       0 NMicF=      0.
                    Isotopes and Nuclear Properties:
 (Nuclear quadrupole moments (NQMom) in fm**2, nuclear magnetic moments (NMagM)
  in nuclear magnetons)

  Atom         1           2           3           4           5           6           7           8           9          10
 IAtWgt=          14          12          12          12          12          12          12          12          12          12
 AtmWgt=  14.0030740  12.0000000  12.0000000  12.0000000  12.0000000  12.0000000  12.0000000  12.0000000  12.0000000  12.0000000
 NucSpn=           2           0           0           0           0           0           0           0           0           0
 AtZEff=   0.0000000   0.0000000   0.0000000   0.0000000   0.0000000   0.0000000   0.0000000   0.0000000   0.0000000   0.0000000
 NQMom=    2.0440000   0.0000000   0.0000000   0.0000000   0.0000000   0.0000000   0.0000000   0.0000000   0.0000000   0.0000000
 NMagM=    0.4037610   0.0000000   0.0000000   0.0000000   0.0000000   0.0000000   0.0000000   0.0000000   0.0000000   0.0000000
 AtZNuc=   7.0000000   6.0000000   6.0000000   6.0000000   6.0000000   6.0000000   6.0000000   6.0000000   6.0000000   6.0000000

  Atom        11          12          13          14          15          16          17          18          19          20
 IAtWgt=          12          12          12           1           1           1           1           1           1           1
 AtmWgt=  12.0000000  12.0000000  12.0000000   1.0078250   1.0078250   1.0078250   1.0078250   1.0078250   1.0078250   1.0078250
 NucSpn=           0           0           0           1           1           1           1           1           1           1
 AtZEff=   0.0000000   0.0000000   0.0000000   0.0000000   0.0000000   0.0000000   0.0000000   0.0000000   0.0000000   0.0000000
 NQMom=    0.0000000   0.0000000   0.0000000   0.0000000   0.0000000   0.0000000   0.0000000   0.0000000   0.0000000   0.0000000
 NMagM=    0.0000000   0.0000000   0.0000000   2.7928460   2.7928460   2.7928460   2.7928460   2.7928460   2.7928460   2.7928460
 AtZNuc=   6.0000000   6.0000000   6.0000000   1.0000000   1.0000000   1.0000000   1.0000000   1.0000000   1.0000000   1.0000000

  Atom        21          22          23          24          25          26          27          28          29          30
 IAtWgt=           1          12          12          12          12          12          12           1           1           1
 AtmWgt=   1.0078250  12.0000000  12.0000000  12.0000000  12.0000000  12.0000000  12.0000000   1.0078250   1.0078250   1.0078250
 NucSpn=           1           0           0           0           0           0           0           1           1           1
 AtZEff=   0.0000000   0.0000000   0.0000000   0.0000000   0.0000000   0.0000000   0.0000000   0.0000000   0.0000000   0.0000000
 NQMom=    0.0000000   0.0000000   0.0000000   0.0000000   0.0000000   0.0000000   0.0000000   0.0000000   0.0000000   0.0000000
 NMagM=    2.7928460   0.0000000   0.0000000   0.0000000   0.0000000   0.0000000   0.0000000   2.7928460   2.7928460   2.7928460
 AtZNuc=   1.0000000   6.0000000   6.0000000   6.0000000   6.0000000   6.0000000   6.0000000   1.0000000   1.0000000   1.0000000

  Atom        31          32          33          34          35          36          37          38          39          40
 IAtWgt=          14          12          12          12          12          12          12          12          12          12
 AtmWgt=  14.0030740  12.0000000  12.0000000  12.0000000  12.0000000  12.0000000  12.0000000  12.0000000  12.0000000  12.0000000
 NucSpn=           2           0           0           0           0           0           0           0           0           0
 AtZEff=   0.0000000   0.0000000   0.0000000   0.0000000   0.0000000   0.0000000   0.0000000   0.0000000   0.0000000   0.0000000
 NQMom=    2.0440000   0.0000000   0.0000000   0.0000000   0.0000000   0.0000000   0.0000000   0.0000000   0.0000000   0.0000000
 NMagM=    0.4037610   0.0000000   0.0000000   0.0000000   0.0000000   0.0000000   0.0000000   0.0000000   0.0000000   0.0000000
 AtZNuc=   7.0000000   6.0000000   6.0000000   6.0000000   6.0000000   6.0000000   6.0000000   6.0000000   6.0000000   6.0000000

  Atom        41          42          43          44          45          46          47          48          49          50
 IAtWgt=          12          12          12           1           1           1           1           1           1           1
 AtmWgt=  12.0000000  12.0000000  12.0000000   1.0078250   1.0078250   1.0078250   1.0078250   1.0078250   1.0078250   1.0078250
 NucSpn=           0           0           0           1           1           1           1           1           1           1
 AtZEff=   0.0000000   0.0000000   0.0000000   0.0000000   0.0000000   0.0000000   0.0000000   0.0000000   0.0000000   0.0000000
 NQMom=    0.0000000   0.0000000   0.0000000   0.0000000   0.0000000   0.0000000   0.0000000   0.0000000   0.0000000   0.0000000
 NMagM=    0.0000000   0.0000000   0.0000000   2.7928460   2.7928460   2.7928460   2.7928460   2.7928460   2.7928460   2.7928460
 AtZNuc=   6.0000000   6.0000000   6.0000000   1.0000000   1.0000000   1.0000000   1.0000000   1.0000000   1.0000000   1.0000000

  Atom        51          52          53          54          55          56          57          58          59          60
 IAtWgt=           1          32          12          12          12          12           1          12           1          12
 AtmWgt=   1.0078250  31.9720718  12.0000000  12.0000000  12.0000000  12.0000000   1.0078250  12.0000000   1.0078250  12.0000000
 NucSpn=           1           0           0           0           0           0           1           0           1           0
 AtZEff=   0.0000000   0.0000000   0.0000000   0.0000000   0.0000000   0.0000000   0.0000000   0.0000000   0.0000000   0.0000000
 NQMom=    0.0000000   0.0000000   0.0000000   0.0000000   0.0000000   0.0000000   0.0000000   0.0000000   0.0000000   0.0000000
 NMagM=    2.7928460   0.0000000   0.0000000   0.0000000   0.0000000   0.0000000   2.7928460   0.0000000   2.7928460   0.0000000
 AtZNuc=   1.0000000  16.0000000   6.0000000   6.0000000   6.0000000   6.0000000   1.0000000   6.0000000   1.0000000   6.0000000

  Atom        61          62          63          64          65
 IAtWgt=           1           1           1          16          16
 AtmWgt=   1.0078250   1.0078250   1.0078250  15.9949146  15.9949146
 NucSpn=           1           1           1           0           0
 AtZEff=   0.0000000   0.0000000   0.0000000   0.0000000   0.0000000
 NQMom=    0.0000000   0.0000000   0.0000000   0.0000000   0.0000000
 NMagM=    2.7928460   2.7928460   2.7928460   0.0000000   0.0000000
 AtZNuc=   1.0000000   1.0000000   1.0000000   8.0000000   8.0000000
 Leave Link  101 at Tue Jun 15 14:45:15 2021, MaxMem=  7864320000 cpu:               0.2 elap:               0.2
 (Enter /sw/linux/gaussian/g16/g16/l202.exe)
 Symmetry turned off by external request.
 Stoichiometry    C36H24N2O2S
 Framework group  C1[X(C36H24N2O2S)]
 Deg. of freedom   189
 Full point group                 C1      NOp   1
                          Input orientation:                          
 ---------------------------------------------------------------------
 Center     Atomic      Atomic             Coordinates (Angstroms)
 Number     Number       Type             X           Y           Z
 ---------------------------------------------------------------------
      1          7           0       -2.579880    0.664340   -0.382100
      2          6           0       -3.751890   -0.033640   -0.672290
      3          6           0       -4.715380    0.270180    0.306620
      4          6           0       -4.095730    1.194880    1.232730
      5          6           0       -2.782670    1.411710    0.776420
      6          6           0       -4.013730   -0.933320   -1.703320
      7          6           0       -5.274130   -1.508250   -1.746470
      8          6           0       -6.249880   -1.204560   -0.790390
      9          6           0       -5.975270   -0.320690    0.240150
     10          6           0       -4.544830    1.850690    2.376820
     11          6           0       -3.684100    2.709400    3.040050
     12          6           0       -2.385770    2.924570    2.564100
     13          6           0       -1.916050    2.285160    1.427720
     14          1           0       -3.264520   -1.185620   -2.444490
     15          1           0       -5.503910   -2.211960   -2.538550
     16          1           0       -7.225720   -1.670810   -0.856090
     17          1           0       -6.727160   -0.093780    0.987660
     18          1           0       -5.554670    1.692790    2.738640
     19          1           0       -4.017760    3.225800    3.932170
     20          1           0       -1.731690    3.609230    3.091530
     21          1           0       -0.914640    2.470720    1.059120
     22          6           0       -0.182870    0.277750   -0.510400
     23          6           0        0.979820    0.151000   -1.264150
     24          6           0        0.935870    0.299690   -2.649870
     25          6           0       -0.271560    0.628730   -3.238760
     26          6           0       -1.391470    0.584440   -1.131750
     27          6           0       -1.433880    0.797000   -2.504030
     28          1           0       -0.149340    0.130340    0.562100
     29          1           0        1.823350    0.163200   -3.255380
     30          1           0       -2.359590    1.086980   -2.984620
     31          7           0        2.197880   -0.161200   -0.630240
     32          6           0        3.390790    0.548210   -0.771140
     33          6           0        4.376800   -0.057980    0.028070
     34          6           0        3.752300   -1.189510    0.680120
     35          6           0        2.412880   -1.220470    0.250580
     36          6           0        3.655720    1.692920   -1.518090
     37          6           0        4.940240    2.210440   -1.462350
     38          6           0        5.936340    1.613110   -0.681710
     39          6           0        5.660370    0.482020    0.068210
     40          6           0        4.217220   -2.164130    1.560130
     41          6           0        3.346450   -3.151360    1.990920
     42          6           0        2.021490   -3.176870    1.541850
     43          6           0        1.535370   -2.218650    0.666120
     44          1           0        2.891710    2.168250   -2.120830
     45          1           0        5.174680    3.098710   -2.037430
     46          1           0        6.930230    2.044130   -0.663400
     47          1           0        6.429100    0.023720    0.680320
     48          1           0        5.247330   -2.150320    1.898270
     49          1           0        3.692570   -3.915130    2.677070
     50          1           0        1.358320   -3.963640    1.882600
     51          1           0        0.511300   -2.255700    0.315410
     52         16           0       -0.376760    0.747030   -5.024540
     53          6           0       -1.184580   -0.798160   -5.423470
     54          6           0       -2.570720   -0.829050   -5.509210
     55          6           0       -0.414340   -1.942710   -5.580880
     56          6           0       -3.198780   -2.043760   -5.751110
     57          1           0       -3.139110    0.087370   -5.405750
     58          6           0       -1.054370   -3.150180   -5.825000
     59          1           0        0.665810   -1.880080   -5.526600
     60          6           0       -2.442050   -3.200450   -5.903720
     61          1           0       -4.278930   -2.084220   -5.826890
     62          1           0       -0.468860   -4.052220   -5.956360
     63          1           0       -2.936290   -4.146420   -6.092500
     64          8           0       -1.295730    1.824120   -5.346860
     65          8           0        0.978710    0.709210   -5.544770
 ---------------------------------------------------------------------
 Rotational constants (GHZ):           0.0919686           0.0688996           0.0503915
 Leave Link  202 at Tue Jun 15 14:45:15 2021, MaxMem=  7864320000 cpu:               0.0 elap:               0.0
 (Enter /sw/linux/gaussian/g16/g16/l301.exe)
 Standard basis: 6-311G(d,p) (5D, 7F)
 Ernie: Thresh=  0.10000D-02 Tol=  0.10000D-05 Strict=F.
   890 basis functions,  1518 primitive gaussians,   931 cartesian basis functions
   143 alpha electrons      143 beta electrons
       nuclear repulsion energy      4609.8235882434 Hartrees.
 IExCor= 4639 DFT=T Ex+Corr=wB97XD ExCW=0 ScaHFX=  1.000000
 ScaDFX=  1.000000  1.000000  1.000000  1.000000 ScalE2=  1.000000  1.000000
 IRadAn=      5 IRanWt=     -1 IRanGd=            0 ICorTp=0 IEmpDi=121
 HFx  wShort=  0.000000 wLong=  0.200000 cFull=  0.222036 cShort=  0.000000 cLong=  0.777964
 DFx  wShort=  0.000000 wLong=  0.200000 cFull=  0.000000 cShort=  0.000000 cLong=  1.000000
 NAtoms=   65 NActive=   65 NUniq=   65 SFac= 1.00D+00 NAtFMM=   60 NAOKFM=T Big=T
 Integral buffers will be    131072 words long.
 Raffenetti 2 integral format.
 Two-electron integral symmetry is turned off.
 R6Disp:  Grimme-D2 Dispersion energy=       -0.0565164475 Hartrees.
 Nuclear repulsion after empirical dispersion term =     4609.7670717959 Hartrees.
 Leave Link  301 at Tue Jun 15 14:45:15 2021, MaxMem=  7864320000 cpu:               0.1 elap:               0.1
 (Enter /sw/linux/gaussian/g16/g16/l302.exe)
 NPDir=0 NMtPBC=     1 NCelOv=     1 NCel=       1 NClECP=     1 NCelD=      1
         NCelK=      1 NCelE2=     1 NClLst=     1 CellRange=     0.0.
 One-electron integrals computed using PRISM.
 NBasis=   890 RedAO= T EigKep=  9.19D-05  NBF=   890
 NBsUse=   890 1.00D-06 EigRej= -1.00D+00 NBFU=   890
 Precomputing XC quadrature grid using
 IXCGrd= 4 IRadAn=           5 IRanWt=          -1 IRanGd=           0 AccXCQ= 0.00D+00.
 Generated NRdTot=       0 NPtTot=           0 NUsed=           0 NTot=          32
 NSgBfM=   922   921   921   922   922 MxSgAt=    65 MxSgA2=    65.
 Leave Link  302 at Tue Jun 15 14:45:22 2021, MaxMem=  7864320000 cpu:               6.5 elap:               6.5
 (Enter /sw/linux/gaussian/g16/g16/l303.exe)
 DipDrv:  MaxL=1.
 Leave Link  303 at Tue Jun 15 14:45:22 2021, MaxMem=  7864320000 cpu:               0.2 elap:               0.2
 (Enter /sw/linux/gaussian/g16/g16/l401.exe)
 ExpMin= 7.71D-02 ExpMax= 9.34D+04 ExpMxC= 3.17D+03 IAcc=3 IRadAn=         5 AccDes= 0.00D+00
 Harris functional with IExCor= 4639 and IRadAn=       5 diagonalized for initial guess.
 HarFok:  IExCor= 4639 AccDes= 0.00D+00 IRadAn=         5 IDoV= 1 UseB2=F ITyADJ=14
 ICtDFT=  3500011 ScaDFX=  1.000000  1.000000  1.000000  1.000000
 FoFCou: FMM=F IPFlag=           0 FMFlag=      100000 FMFlg1=        2001
         NFxFlg=           0 DoJE=T BraDBF=F KetDBF=T FulRan=T
         wScrn=  0.000000 ICntrl=       500 IOpCl=  0 I1Cent=   200000004 NGrid=           0
         NMat0=    1 NMatS0=      1 NMatT0=    0 NMatD0=    1 NMtDS0=    0 NMtDT0=    0
 Symmetry not used in FoFCou.
 Harris En= -1965.18611458735    
 JPrj=0 DoOrth=F DoCkMO=F.
 Leave Link  401 at Tue Jun 15 14:46:46 2021, MaxMem=  7864320000 cpu:              84.4 elap:              84.4
 (Enter /sw/linux/gaussian/g16/g16/l502.exe)
 Two-electron integral symmetry not used.
 Closed shell SCF:
 Using DIIS extrapolation, IDIIS=  1040.
 NGot=  7864320000 LenX=  7862574056 LenY=  7861706364
 Requested convergence on RMS density matrix=1.00D-08 within 128 cycles.
 Requested convergence on MAX density matrix=1.00D-06.
 Requested convergence on             energy=1.00D-06.
 No special actions if energy rises.
 Fock matrices will be formed incrementally for  20 cycles.
 Integral accuracy reduced to 1.0D-05 until final iterations.

 Cycle   1  Pass 0  IDiag  1:
 FoFJK:  IHMeth= 1 ICntrl=       0 DoSepK=T KAlg= 0 I1Cent=           0 FoldK=F
 IRaf=         1 NMat=       1 IRICut=       1 DoRegI=T DoRafI=F ISym2E= 0 IDoP0=0 IntGTp=1.
 FoFCou: FMM=T IPFlag=           0 FMFlag=      100000 FMFlg1=        2001
         NFxFlg=           0 DoJE=T BraDBF=F KetDBF=F FulRan=T
         wScrn=  0.000000 ICntrl=       500 IOpCl=  0 I1Cent=           0 NGrid=           0
         NMat0=    1 NMatS0=      1 NMatT0=    0 NMatD0=    1 NMtDS0=    0 NMtDT0=    0
 Symmetry not used in FoFCou.
 FMM levels:  10  Number of levels for PrismC:   9
 E= -2043.52242064606    
 DIIS: error= 1.00D-01 at cycle   1 NSaved=   1.
 NSaved= 1 IEnMin= 1 EnMin= -2043.52242064606     IErMin= 1 ErrMin= 1.00D-01
 ErrMax= 1.00D-01  0.00D+00 EMaxC= 1.00D-01 BMatC= 4.86D+00 BMatP= 4.86D+00
 IDIUse=3 WtCom= 0.00D+00 WtEn= 1.00D+00
 Coeff-Com:  0.100D+01
 Coeff-En:   0.100D+01
 Coeff:      0.100D+01
 Gap=     0.389 Goal=   None    Shift=    0.000
 GapD=    0.389 DampG=1.000 DampE=0.250 DampFc=0.2500 IDamp=-1.
 Damping current iteration by 2.50D-01
 RMSDP=1.80D-03 MaxDP=3.21D-01              OVMax= 2.01D-01

 Cycle   2  Pass 0  IDiag  1:
 RMSU=  4.47D-04    CP:  9.93D-01
 E= -2043.75071542814     Delta-E=       -0.228294782080 Rises=F Damp=T
 DIIS: error= 6.88D-02 at cycle   2 NSaved=   2.
 NSaved= 2 IEnMin= 2 EnMin= -2043.75071542814     IErMin= 2 ErrMin= 6.88D-02
 ErrMax= 6.88D-02  0.00D+00 EMaxC= 1.00D-01 BMatC= 2.43D+00 BMatP= 4.86D+00
 IDIUse=3 WtCom= 3.12D-01 WtEn= 6.88D-01
 Coeff-Com: -0.210D+01 0.310D+01
 Coeff-En:   0.000D+00 0.100D+01
 Coeff:     -0.657D+00 0.166D+01
 Gap=     0.286 Goal=   None    Shift=    0.000
 RMSDP=9.45D-04 MaxDP=1.06D-01 DE=-2.28D-01 OVMax= 1.29D-01

 Cycle   3  Pass 0  IDiag  1:
 RMSU=  6.05D-04    CP:  9.63D-01  2.55D+00
 E= -2044.22807548360     Delta-E=       -0.477360055461 Rises=F Damp=F
 DIIS: error= 7.95D-03 at cycle   3 NSaved=   3.
 NSaved= 3 IEnMin= 3 EnMin= -2044.22807548360     IErMin= 3 ErrMin= 7.95D-03
 ErrMax= 7.95D-03  0.00D+00 EMaxC= 1.00D-01 BMatC= 2.62D-02 BMatP= 2.43D+00
 IDIUse=3 WtCom= 9.20D-01 WtEn= 7.95D-02
 Coeff-Com:  0.933D-01-0.644D-01 0.971D+00
 Coeff-En:   0.000D+00 0.000D+00 0.100D+01
 Coeff:      0.859D-01-0.592D-01 0.973D+00
 Gap=     0.283 Goal=   None    Shift=    0.000
 RMSDP=2.31D-04 MaxDP=3.40D-02 DE=-4.77D-01 OVMax= 2.35D-02

 Cycle   4  Pass 0  IDiag  1:
 RMSU=  2.27D-04    CP:  9.66D-01  2.47D+00  9.76D-01
 E= -2044.23119003389     Delta-E=       -0.003114550286 Rises=F Damp=F
 DIIS: error= 3.83D-03 at cycle   4 NSaved=   4.
 NSaved= 4 IEnMin= 4 EnMin= -2044.23119003389     IErMin= 4 ErrMin= 3.83D-03
 ErrMax= 3.83D-03  0.00D+00 EMaxC= 1.00D-01 BMatC= 8.91D-03 BMatP= 2.62D-02
 IDIUse=3 WtCom= 9.62D-01 WtEn= 3.83D-02
 Coeff-Com:  0.131D+00-0.160D+00 0.438D+00 0.591D+00
 Coeff-En:   0.000D+00 0.000D+00 0.372D+00 0.628D+00
 Coeff:      0.126D+00-0.154D+00 0.436D+00 0.592D+00
 Gap=     0.278 Goal=   None    Shift=    0.000
 RMSDP=1.28D-04 MaxDP=1.15D-02 DE=-3.11D-03 OVMax= 1.68D-02

 Cycle   5  Pass 0  IDiag  1:
 RMSU=  4.96D-05    CP:  9.63D-01  2.46D+00  1.09D+00  5.82D-01
 E= -2044.23776840546     Delta-E=       -0.006578371570 Rises=F Damp=F
 DIIS: error= 5.53D-04 at cycle   5 NSaved=   5.
 NSaved= 5 IEnMin= 5 EnMin= -2044.23776840546     IErMin= 5 ErrMin= 5.53D-04
 ErrMax= 5.53D-04  0.00D+00 EMaxC= 1.00D-01 BMatC= 3.14D-04 BMatP= 8.91D-03
 IDIUse=3 WtCom= 9.94D-01 WtEn= 5.53D-03
 Coeff-Com:  0.521D-01-0.668D-01 0.126D+00 0.233D+00 0.656D+00
 Coeff-En:   0.000D+00 0.000D+00 0.000D+00 0.000D+00 0.100D+01
 Coeff:      0.518D-01-0.665D-01 0.125D+00 0.232D+00 0.658D+00
 Gap=     0.276 Goal=   None    Shift=    0.000
 RMSDP=2.52D-05 MaxDP=1.84D-03 DE=-6.58D-03 OVMax= 2.83D-03

 Cycle   6  Pass 0  IDiag  1:
 RMSU=  1.79D-05    CP:  9.63D-01  2.46D+00  1.09D+00  6.59D-01  9.93D-01
 E= -2044.23800896744     Delta-E=       -0.000240561985 Rises=F Damp=F
 DIIS: error= 2.94D-04 at cycle   6 NSaved=   6.
 NSaved= 6 IEnMin= 6 EnMin= -2044.23800896744     IErMin= 6 ErrMin= 2.94D-04
 ErrMax= 2.94D-04  0.00D+00 EMaxC= 1.00D-01 BMatC= 3.25D-05 BMatP= 3.14D-04
 IDIUse=3 WtCom= 9.97D-01 WtEn= 2.94D-03
 Coeff-Com:  0.852D-02-0.119D-01-0.708D-03 0.186D-01 0.240D+00 0.745D+00
 Coeff-En:   0.000D+00 0.000D+00 0.000D+00 0.000D+00 0.000D+00 0.100D+01
 Coeff:      0.850D-02-0.119D-01-0.706D-03 0.186D-01 0.240D+00 0.746D+00
 Gap=     0.277 Goal=   None    Shift=    0.000
 RMSDP=1.42D-05 MaxDP=1.54D-03 DE=-2.41D-04 OVMax= 2.19D-03

 Cycle   7  Pass 0  IDiag  1:
 RMSU=  1.09D-05    CP:  9.63D-01  2.45D+00  1.10D+00  6.69D-01  1.12D+00
                    CP:  8.19D-01
 E= -2044.23803519512     Delta-E=       -0.000026227676 Rises=F Damp=F
 DIIS: error= 1.43D-04 at cycle   7 NSaved=   7.
 NSaved= 7 IEnMin= 7 EnMin= -2044.23803519512     IErMin= 7 ErrMin= 1.43D-04
 ErrMax= 1.43D-04  0.00D+00 EMaxC= 1.00D-01 BMatC= 8.14D-06 BMatP= 3.25D-05
 IDIUse=3 WtCom= 9.99D-01 WtEn= 1.43D-03
 Coeff-Com: -0.246D-02 0.271D-02-0.172D-01-0.275D-01-0.472D-02 0.367D+00
 Coeff-Com:  0.682D+00
 Coeff-En:   0.000D+00 0.000D+00 0.000D+00 0.000D+00 0.000D+00 0.000D+00
 Coeff-En:   0.100D+01
 Coeff:     -0.246D-02 0.271D-02-0.172D-01-0.275D-01-0.472D-02 0.367D+00
 Coeff:      0.683D+00
 Gap=     0.277 Goal=   None    Shift=    0.000
 RMSDP=1.07D-05 MaxDP=3.72D-04 DE=-2.62D-05 OVMax= 7.54D-04

 Cycle   8  Pass 0  IDiag  1:
 RMSU=  8.69D-06    CP:  9.63D-01  2.45D+00  1.10D+00  6.71D-01  1.17D+00
                    CP:  1.08D+00  1.24D+00
 E= -2044.23804400120     Delta-E=       -0.000008806078 Rises=F Damp=F
 DIIS: error= 3.85D-05 at cycle   8 NSaved=   8.
 NSaved= 8 IEnMin= 8 EnMin= -2044.23804400120     IErMin= 8 ErrMin= 3.85D-05
 ErrMax= 3.85D-05  0.00D+00 EMaxC= 1.00D-01 BMatC= 1.00D-06 BMatP= 8.14D-06
 IDIUse=1 WtCom= 1.00D+00 WtEn= 0.00D+00
 Coeff-Com: -0.174D-02 0.211D-02-0.807D-02-0.161D-01-0.351D-01 0.988D-01
 Coeff-Com:  0.310D+00 0.650D+00
 Coeff:     -0.174D-02 0.211D-02-0.807D-02-0.161D-01-0.351D-01 0.988D-01
 Coeff:      0.310D+00 0.650D+00
 Gap=     0.277 Goal=   None    Shift=    0.000
 RMSDP=1.19D-05 MaxDP=2.84D-04 DE=-8.81D-06 OVMax= 4.44D-04

 Cycle   9  Pass 0  IDiag  1:
 RMSU=  7.73D-06    CP:  9.63D-01  2.45D+00  1.10D+00  6.71D-01  1.19D+00
                    CP:  1.19D+00  1.84D+00  1.68D+00
 E= -2044.23804273587     Delta-E=        0.000001265324 Rises=F Damp=F
 DIIS: error= 4.01D-05 at cycle   9 NSaved=   9.
 NSaved= 9 IEnMin= 8 EnMin= -2044.23804400120     IErMin= 8 ErrMin= 3.85D-05
 ErrMax= 4.01D-05  0.00D+00 EMaxC= 1.00D-01 BMatC= 4.93D-07 BMatP= 1.00D-06
 IDIUse=1 WtCom= 1.00D+00 WtEn= 0.00D+00
 Coeff-Com: -0.791D-03 0.940D-03-0.429D-02-0.911D-02-0.232D-01 0.484D-01
 Coeff-Com:  0.164D+00 0.410D+00 0.414D+00
 Coeff:     -0.791D-03 0.940D-03-0.429D-02-0.911D-02-0.232D-01 0.484D-01
 Coeff:      0.164D+00 0.410D+00 0.414D+00
 Gap=     0.277 Goal=   None    Shift=    0.000
 RMSDP=1.07D-05 MaxDP=2.66D-04 DE= 1.27D-06 OVMax= 9.35D-05

 Cycle  10  Pass 0  IDiag  1:
 RMSU=  4.62D-06    CP:  9.63D-01  2.45D+00  1.10D+00  6.70D-01  1.20D+00
                    CP:  1.25D+00  2.22D+00  2.48D+00  1.64D+00
 E= -2044.23804334825     Delta-E=       -0.000000612374 Rises=F Damp=F
 DIIS: error= 5.12D-05 at cycle  10 NSaved=  10.
 NSaved=10 IEnMin= 8 EnMin= -2044.23804400120     IErMin= 8 ErrMin= 3.85D-05
 ErrMax= 5.12D-05  0.00D+00 EMaxC= 1.00D-01 BMatC= 8.21D-07 BMatP= 4.93D-07
 IDIUse=1 WtCom= 1.00D+00 WtEn= 0.00D+00
 Coeff-Com: -0.580D-03 0.689D-03-0.334D-02-0.778D-02-0.247D-01 0.269D-01
 Coeff-Com:  0.126D+00 0.435D+00 0.957D+00-0.508D+00
 Coeff:     -0.580D-03 0.689D-03-0.334D-02-0.778D-02-0.247D-01 0.269D-01
 Coeff:      0.126D+00 0.435D+00 0.957D+00-0.508D+00
 Gap=     0.277 Goal=   None    Shift=    0.000
 RMSDP=9.42D-06 MaxDP=2.42D-04 DE=-6.12D-07 OVMax= 2.43D-05

 Initial convergence to 1.0D-05 achieved.  Increase integral accuracy.
 Cycle  11  Pass 1  IDiag  1:
 E= -2044.23805108511     Delta-E=       -0.000007736863 Rises=F Damp=F
 DIIS: error= 3.51D-04 at cycle   1 NSaved=   1.
 NSaved= 1 IEnMin= 1 EnMin= -2044.23805108511     IErMin= 1 ErrMin= 3.51D-04
 ErrMax= 3.51D-04  0.00D+00 EMaxC= 1.00D-01 BMatC= 4.32D-05 BMatP= 4.32D-05
 IDIUse=3 WtCom= 9.96D-01 WtEn= 3.51D-03
 Coeff-Com:  0.100D+01
 Coeff-En:   0.100D+01
 Coeff:      0.100D+01
 Gap=     0.277 Goal=   None    Shift=    0.000
 RMSDP=9.42D-06 MaxDP=2.42D-04 DE=-7.74D-06 OVMax= 8.56D-04

 Cycle  12  Pass 1  IDiag  1:
 RMSU=  2.40D-04    CP:  9.99D-01
 E= -2044.23809551570     Delta-E=       -0.000044430590 Rises=F Damp=F
 DIIS: error= 1.44D-05 at cycle   2 NSaved=   2.
 NSaved= 2 IEnMin= 2 EnMin= -2044.23809551570     IErMin= 2 ErrMin= 1.44D-05
 ErrMax= 1.44D-05  0.00D+00 EMaxC= 1.00D-01 BMatC= 1.31D-07 BMatP= 4.32D-05
 IDIUse=1 WtCom= 1.00D+00 WtEn= 0.00D+00
 Coeff-Com: -0.400D-01 0.104D+01
 Coeff:     -0.400D-01 0.104D+01
 Gap=     0.277 Goal=   None    Shift=    0.000
 RMSDP=1.19D-05 MaxDP=4.68D-04 DE=-4.44D-05 OVMax= 1.40D-04

 Cycle  13  Pass 1  IDiag  1:
 RMSU=  2.86D-06    CP:  9.99D-01  1.05D+00
 E= -2044.23809565907     Delta-E=       -0.000000143375 Rises=F Damp=F
 DIIS: error= 1.30D-05 at cycle   3 NSaved=   3.
 NSaved= 3 IEnMin= 3 EnMin= -2044.23809565907     IErMin= 3 ErrMin= 1.30D-05
 ErrMax= 1.30D-05  0.00D+00 EMaxC= 1.00D-01 BMatC= 6.64D-08 BMatP= 1.31D-07
 IDIUse=1 WtCom= 1.00D+00 WtEn= 0.00D+00
 Coeff-Com: -0.213D-01 0.518D+00 0.503D+00
 Coeff:     -0.213D-01 0.518D+00 0.503D+00
 Gap=     0.277 Goal=   None    Shift=    0.000
 RMSDP=3.72D-07 MaxDP=3.09D-05 DE=-1.43D-07 OVMax= 4.20D-05

 Cycle  14  Pass 1  IDiag  1:
 RMSU=  3.49D-07    CP:  9.99D-01  1.05D+00  1.01D+00
 E= -2044.23809571225     Delta-E=       -0.000000053172 Rises=F Damp=F
 DIIS: error= 3.22D-06 at cycle   4 NSaved=   4.
 NSaved= 4 IEnMin= 4 EnMin= -2044.23809571225     IErMin= 4 ErrMin= 3.22D-06
 ErrMax= 3.22D-06  0.00D+00 EMaxC= 1.00D-01 BMatC= 3.26D-09 BMatP= 6.64D-08
 IDIUse=1 WtCom= 1.00D+00 WtEn= 0.00D+00
 Coeff-Com:  0.360D-03-0.201D-01 0.149D+00 0.871D+00
 Coeff:      0.360D-03-0.201D-01 0.149D+00 0.871D+00
 Gap=     0.277 Goal=   None    Shift=    0.000
 RMSDP=2.08D-07 MaxDP=8.53D-06 DE=-5.32D-08 OVMax= 3.32D-05

 Cycle  15  Pass 1  IDiag  1:
 RMSU=  1.15D-07    CP:  9.99D-01  1.05D+00  1.05D+00  9.56D-01
 E= -2044.23809571747     Delta-E=       -0.000000005228 Rises=F Damp=F
 DIIS: error= 1.82D-06 at cycle   5 NSaved=   5.
 NSaved= 5 IEnMin= 5 EnMin= -2044.23809571747     IErMin= 5 ErrMin= 1.82D-06
 ErrMax= 1.82D-06  0.00D+00 EMaxC= 1.00D-01 BMatC= 4.92D-10 BMatP= 3.26D-09
 IDIUse=1 WtCom= 1.00D+00 WtEn= 0.00D+00
 Coeff-Com:  0.165D-02-0.442D-01 0.669D-02 0.323D+00 0.713D+00
 Coeff:      0.165D-02-0.442D-01 0.669D-02 0.323D+00 0.713D+00
 Gap=     0.277 Goal=   None    Shift=    0.000
 RMSDP=4.56D-08 MaxDP=1.78D-06 DE=-5.23D-09 OVMax= 1.08D-05

 Cycle  16  Pass 1  IDiag  1:
 RMSU=  3.53D-08    CP:  9.99D-01  1.05D+00  1.06D+00  1.01D+00  1.12D+00
 E= -2044.23809571830     Delta-E=       -0.000000000829 Rises=F Damp=F
 DIIS: error= 7.63D-07 at cycle   6 NSaved=   6.
 NSaved= 6 IEnMin= 6 EnMin= -2044.23809571830     IErMin= 6 ErrMin= 7.63D-07
 ErrMax= 7.63D-07  0.00D+00 EMaxC= 1.00D-01 BMatC= 8.57D-11 BMatP= 4.92D-10
 IDIUse=1 WtCom= 1.00D+00 WtEn= 0.00D+00
 Coeff-Com:  0.354D-03-0.731D-02-0.353D-01-0.875D-01 0.171D+00 0.959D+00
 Coeff:      0.354D-03-0.731D-02-0.353D-01-0.875D-01 0.171D+00 0.959D+00
 Gap=     0.277 Goal=   None    Shift=    0.000
 RMSDP=2.89D-08 MaxDP=1.28D-06 DE=-8.29D-10 OVMax= 9.78D-06

 Cycle  17  Pass 1  IDiag  1:
 RMSU=  1.85D-08    CP:  9.99D-01  1.05D+00  1.06D+00  1.03D+00  1.29D+00
                    CP:  1.20D+00
 E= -2044.23809571888     Delta-E=       -0.000000000574 Rises=F Damp=F
 DIIS: error= 3.59D-07 at cycle   7 NSaved=   7.
 NSaved= 7 IEnMin= 7 EnMin= -2044.23809571888     IErMin= 7 ErrMin= 3.59D-07
 ErrMax= 3.59D-07  0.00D+00 EMaxC= 1.00D-01 BMatC= 2.59D-11 BMatP= 8.57D-11
 IDIUse=1 WtCom= 1.00D+00 WtEn= 0.00D+00
 Coeff-Com: -0.255D-03 0.783D-02-0.195D-01-0.116D+00-0.873D-01 0.464D+00
 Coeff-Com:  0.751D+00
 Coeff:     -0.255D-03 0.783D-02-0.195D-01-0.116D+00-0.873D-01 0.464D+00
 Coeff:      0.751D+00
 Gap=     0.277 Goal=   None    Shift=    0.000
 RMSDP=1.38D-08 MaxDP=7.20D-07 DE=-5.74D-10 OVMax= 5.24D-06

 Cycle  18  Pass 1  IDiag  1:
 RMSU=  9.32D-09    CP:  9.99D-01  1.05D+00  1.06D+00  1.03D+00  1.34D+00
                    CP:  1.38D+00  1.19D+00
 E= -2044.23809571883     Delta-E=        0.000000000044 Rises=F Damp=F
 DIIS: error= 1.85D-07 at cycle   8 NSaved=   8.
 NSaved= 8 IEnMin= 7 EnMin= -2044.23809571888     IErMin= 8 ErrMin= 1.85D-07
 ErrMax= 1.85D-07  0.00D+00 EMaxC= 1.00D-01 BMatC= 4.20D-12 BMatP= 2.59D-11
 IDIUse=1 WtCom= 1.00D+00 WtEn= 0.00D+00
 Coeff-Com: -0.152D-03 0.421D-02-0.270D-02-0.355D-01-0.641D-01 0.450D-01
 Coeff-Com:  0.325D+00 0.728D+00
 Coeff:     -0.152D-03 0.421D-02-0.270D-02-0.355D-01-0.641D-01 0.450D-01
 Coeff:      0.325D+00 0.728D+00
 Gap=     0.277 Goal=   None    Shift=    0.000
 RMSDP=5.05D-09 MaxDP=2.13D-07 DE= 4.37D-11 OVMax= 1.52D-06

 SCF Done:  E(RwB97XD) =  -2044.23809572     A.U. after   18 cycles
            NFock= 18  Conv=0.51D-08     -V/T= 2.0033
 KE= 2.037422585977D+03 PE=-1.399111403983D+04 EE= 5.299686286335D+03
 Leave Link  502 at Tue Jun 15 15:35:53 2021, MaxMem=  7864320000 cpu:            2946.6 elap:            2946.6
 (Enter /sw/linux/gaussian/g16/g16/l601.exe)
 Copying SCF densities to generalized density rwf, IOpCl= 0 IROHF=0.

 **********************************************************************

            Population analysis using the SCF Density.

 **********************************************************************

 Alpha  occ. eigenvalues --  -89.22978 -19.24618 -19.24521 -14.49532 -14.49365
 Alpha  occ. eigenvalues --  -10.36742 -10.36738 -10.34481 -10.33787 -10.33765
 Alpha  occ. eigenvalues --  -10.33679 -10.33582 -10.33465 -10.32563 -10.32538
 Alpha  occ. eigenvalues --  -10.32415 -10.32203 -10.32188 -10.31830 -10.31661
 Alpha  occ. eigenvalues --  -10.31607 -10.29879 -10.29792 -10.29769 -10.29730
 Alpha  occ. eigenvalues --  -10.29673 -10.29632 -10.29623 -10.29612 -10.29582
 Alpha  occ. eigenvalues --  -10.29579 -10.29519 -10.29426 -10.29400 -10.29382
 Alpha  occ. eigenvalues --  -10.29356 -10.29171 -10.28919 -10.28753 -10.28695
 Alpha  occ. eigenvalues --  -10.28541  -8.24831  -6.19612  -6.19537  -6.19484
 Alpha  occ. eigenvalues --   -1.22904  -1.12214  -1.11829  -1.11423  -1.01235
 Alpha  occ. eigenvalues --   -0.99677  -0.97382  -0.96417  -0.96184  -0.96043
 Alpha  occ. eigenvalues --   -0.91616  -0.91211  -0.89404  -0.88180  -0.88078
 Alpha  occ. eigenvalues --   -0.87520  -0.86492  -0.86300  -0.83753  -0.83251
 Alpha  occ. eigenvalues --   -0.82982  -0.82770  -0.80097  -0.76825  -0.76230
 Alpha  occ. eigenvalues --   -0.74112  -0.73437  -0.73115  -0.71603  -0.71428
 Alpha  occ. eigenvalues --   -0.71046  -0.68567  -0.68296  -0.67923  -0.67809
 Alpha  occ. eigenvalues --   -0.65743  -0.63933  -0.62802  -0.62753  -0.62036
 Alpha  occ. eigenvalues --   -0.61724  -0.60542  -0.59855  -0.59712  -0.59512
 Alpha  occ. eigenvalues --   -0.58199  -0.57807  -0.56007  -0.55898  -0.55660
 Alpha  occ. eigenvalues --   -0.55484  -0.55289  -0.54509  -0.54180  -0.54031
 Alpha  occ. eigenvalues --   -0.53863  -0.53476  -0.53168  -0.52737  -0.52285
 Alpha  occ. eigenvalues --   -0.52082  -0.52064  -0.51462  -0.51209  -0.50201
 Alpha  occ. eigenvalues --   -0.49657  -0.49560  -0.48803  -0.47762  -0.46010
 Alpha  occ. eigenvalues --   -0.45947  -0.45837  -0.45809  -0.45726  -0.45659
 Alpha  occ. eigenvalues --   -0.45515  -0.44010  -0.43358  -0.43303  -0.43079
 Alpha  occ. eigenvalues --   -0.42793  -0.42718  -0.42301  -0.42009  -0.40262
 Alpha  occ. eigenvalues --   -0.38518  -0.38269  -0.37640  -0.37199  -0.36498
 Alpha  occ. eigenvalues --   -0.36004  -0.35479  -0.34450  -0.34247  -0.29898
 Alpha  occ. eigenvalues --   -0.29672  -0.28584  -0.28390
 Alpha virt. eigenvalues --   -0.00676   0.01264   0.02010   0.02238   0.02983
 Alpha virt. eigenvalues --    0.03444   0.05722   0.05958   0.08187   0.08854
 Alpha virt. eigenvalues --    0.09387   0.09800   0.10022   0.11788   0.12122
 Alpha virt. eigenvalues --    0.12616   0.13053   0.13235   0.13702   0.13987
 Alpha virt. eigenvalues --    0.14769   0.15183   0.15496   0.15995   0.16151
 Alpha virt. eigenvalues --    0.16564   0.16808   0.17305   0.17696   0.17986
 Alpha virt. eigenvalues --    0.18329   0.18882   0.19161   0.19609   0.20393
 Alpha virt. eigenvalues --    0.20539   0.20793   0.21744   0.22152   0.22619
 Alpha virt. eigenvalues --    0.22767   0.23088   0.23555   0.24094   0.24313
 Alpha virt. eigenvalues --    0.24991   0.26258   0.26381   0.26766   0.27987
 Alpha virt. eigenvalues --    0.28618   0.29336   0.29549   0.29623   0.29884
 Alpha virt. eigenvalues --    0.30342   0.30429   0.30874   0.31821   0.31991
 Alpha virt. eigenvalues --    0.32492   0.33050   0.33329   0.34013   0.34442
 Alpha virt. eigenvalues --    0.34578   0.34638   0.34987   0.35559   0.36049
 Alpha virt. eigenvalues --    0.36442   0.37252   0.37435   0.38309   0.39204
 Alpha virt. eigenvalues --    0.39669   0.39920   0.40580   0.40726   0.41378
 Alpha virt. eigenvalues --    0.41878   0.42550   0.43283   0.43409   0.43963
 Alpha virt. eigenvalues --    0.44148   0.44471   0.44782   0.44906   0.45331
 Alpha virt. eigenvalues --    0.45495   0.45871   0.46185   0.46449   0.46876
 Alpha virt. eigenvalues --    0.47100   0.47363   0.47586   0.47895   0.47961
 Alpha virt. eigenvalues --    0.48289   0.48692   0.48716   0.48805   0.49102
 Alpha virt. eigenvalues --    0.49189   0.49424   0.49616   0.50045   0.50410
 Alpha virt. eigenvalues --    0.50646   0.50854   0.51071   0.51357   0.51554
 Alpha virt. eigenvalues --    0.51751   0.51775   0.51907   0.52382   0.52937
 Alpha virt. eigenvalues --    0.53016   0.53405   0.54057   0.54143   0.54490
 Alpha virt. eigenvalues --    0.54589   0.54892   0.55394   0.55670   0.56392
 Alpha virt. eigenvalues --    0.56681   0.56805   0.57140   0.57532   0.57607
 Alpha virt. eigenvalues --    0.58016   0.58239   0.58612   0.58823   0.59205
 Alpha virt. eigenvalues --    0.59973   0.60423   0.61006   0.61479   0.61687
 Alpha virt. eigenvalues --    0.62246   0.63616   0.64461   0.64492   0.64947
 Alpha virt. eigenvalues --    0.65063   0.65291   0.65389   0.65793   0.65998
 Alpha virt. eigenvalues --    0.66145   0.66479   0.66781   0.67161   0.67597
 Alpha virt. eigenvalues --    0.67744   0.68138   0.68619   0.68994   0.69142
 Alpha virt. eigenvalues --    0.69566   0.69752   0.70066   0.70211   0.70339
 Alpha virt. eigenvalues --    0.70565   0.70848   0.71333   0.71811   0.72223
 Alpha virt. eigenvalues --    0.72247   0.72633   0.73012   0.73489   0.73567
 Alpha virt. eigenvalues --    0.73765   0.74569   0.75159   0.75505   0.76082
 Alpha virt. eigenvalues --    0.76252   0.77326   0.77601   0.78360   0.78820
 Alpha virt. eigenvalues --    0.79599   0.79906   0.80072   0.80778   0.80934
 Alpha virt. eigenvalues --    0.81138   0.81386   0.81672   0.81983   0.82389
 Alpha virt. eigenvalues --    0.83179   0.83417   0.83947   0.84099   0.84643
 Alpha virt. eigenvalues --    0.85068   0.85444   0.85948   0.86127   0.86728
 Alpha virt. eigenvalues --    0.87170   0.87569   0.88227   0.88470   0.88845
 Alpha virt. eigenvalues --    0.88960   0.89273   0.89630   0.90344   0.90558
 Alpha virt. eigenvalues --    0.90955   0.91194   0.91857   0.92935   0.93341
 Alpha virt. eigenvalues --    0.93396   0.94021   0.94519   0.94996   0.95536
 Alpha virt. eigenvalues --    0.96122   0.96233   0.96906   0.97298   0.97909
 Alpha virt. eigenvalues --    0.98474   0.99501   1.00066   1.00566   1.01482
 Alpha virt. eigenvalues --    1.02189   1.03068   1.03532   1.04021   1.04353
 Alpha virt. eigenvalues --    1.05198   1.05644   1.06357   1.07422   1.07884
 Alpha virt. eigenvalues --    1.08244   1.08765   1.09265   1.09553   1.09761
 Alpha virt. eigenvalues --    1.09903   1.10091   1.10407   1.10527   1.10930
 Alpha virt. eigenvalues --    1.11187   1.11415   1.11663   1.11798   1.11916
 Alpha virt. eigenvalues --    1.12290   1.12803   1.13208   1.13854   1.13942
 Alpha virt. eigenvalues --    1.14316   1.15205   1.15352   1.16312   1.16671
 Alpha virt. eigenvalues --    1.17072   1.17683   1.17916   1.18709   1.19157
 Alpha virt. eigenvalues --    1.19532   1.20063   1.20244   1.20435   1.20734
 Alpha virt. eigenvalues --    1.21699   1.21906   1.22264   1.23189   1.23476
 Alpha virt. eigenvalues --    1.23738   1.23874   1.24093   1.25264   1.26770
 Alpha virt. eigenvalues --    1.27684   1.28898   1.29636   1.30121   1.31174
 Alpha virt. eigenvalues --    1.32890   1.33886   1.34527   1.35155   1.35577
 Alpha virt. eigenvalues --    1.36280   1.37187   1.38205   1.38475   1.39837
 Alpha virt. eigenvalues --    1.41191   1.41800   1.43834   1.45499   1.45958
 Alpha virt. eigenvalues --    1.47699   1.49143   1.50025   1.50402   1.50965
 Alpha virt. eigenvalues --    1.51302   1.52062   1.52636   1.53223   1.53423
 Alpha virt. eigenvalues --    1.53555   1.53696   1.53974   1.54499   1.54817
 Alpha virt. eigenvalues --    1.55119   1.55421   1.55836   1.56264   1.57011
 Alpha virt. eigenvalues --    1.57109   1.58083   1.58519   1.58965   1.59924
 Alpha virt. eigenvalues --    1.60773   1.61288   1.61543   1.61733   1.62033
 Alpha virt. eigenvalues --    1.62319   1.62691   1.62898   1.63257   1.63526
 Alpha virt. eigenvalues --    1.63611   1.64825   1.64992   1.65835   1.66802
 Alpha virt. eigenvalues --    1.67089   1.67148   1.67731   1.68194   1.69172
 Alpha virt. eigenvalues --    1.69427   1.69805   1.70237   1.70444   1.70840
 Alpha virt. eigenvalues --    1.72469   1.72665   1.73035   1.74126   1.75215
 Alpha virt. eigenvalues --    1.75568   1.75668   1.75959   1.76605   1.77230
 Alpha virt. eigenvalues --    1.77544   1.77856   1.78136   1.78318   1.79963
 Alpha virt. eigenvalues --    1.80543   1.80760   1.80821   1.81113   1.82211
 Alpha virt. eigenvalues --    1.82660   1.83221   1.83731   1.84327   1.84597
 Alpha virt. eigenvalues --    1.84928   1.85798   1.85963   1.87014   1.88310
 Alpha virt. eigenvalues --    1.88923   1.89308   1.89412   1.89622   1.91359
 Alpha virt. eigenvalues --    1.92086   1.92529   1.92780   1.93401   1.93738
 Alpha virt. eigenvalues --    1.93833   1.94172   1.94496   1.94853   1.95845
 Alpha virt. eigenvalues --    1.96682   1.96938   1.97102   1.97574   1.97650
 Alpha virt. eigenvalues --    1.98081   1.98095   1.98324   1.98485   1.98717
 Alpha virt. eigenvalues --    1.99089   1.99150   1.99398   1.99864   2.00137
 Alpha virt. eigenvalues --    2.00325   2.00513   2.00764   2.01131   2.01616
 Alpha virt. eigenvalues --    2.03295   2.03648   2.03800   2.04008   2.04330
 Alpha virt. eigenvalues --    2.04992   2.05418   2.05521   2.05989   2.06213
 Alpha virt. eigenvalues --    2.07113   2.07340   2.08097   2.08659   2.08863
 Alpha virt. eigenvalues --    2.10024   2.10381   2.10794   2.11505   2.12149
 Alpha virt. eigenvalues --    2.13065   2.14076   2.15581   2.15902   2.16293
 Alpha virt. eigenvalues --    2.17944   2.18296   2.18911   2.19770   2.21143
 Alpha virt. eigenvalues --    2.21434   2.21850   2.22052   2.23440   2.24179
 Alpha virt. eigenvalues --    2.24452   2.27226   2.29143   2.29324   2.31529
 Alpha virt. eigenvalues --    2.32050   2.33409   2.33637   2.34508   2.34703
 Alpha virt. eigenvalues --    2.34861   2.35678   2.36563   2.36945   2.37133
 Alpha virt. eigenvalues --    2.37537   2.38660   2.38870   2.40565   2.40817
 Alpha virt. eigenvalues --    2.41492   2.41937   2.43260   2.44057   2.45694
 Alpha virt. eigenvalues --    2.48508   2.48768   2.49165   2.49410   2.50267
 Alpha virt. eigenvalues --    2.50424   2.50623   2.51457   2.53471   2.54521
 Alpha virt. eigenvalues --    2.56715   2.58437   2.58596   2.59587   2.60156
 Alpha virt. eigenvalues --    2.60183   2.60348   2.61627   2.62278   2.63312
 Alpha virt. eigenvalues --    2.64787   2.65693   2.66190   2.67106   2.67942
 Alpha virt. eigenvalues --    2.68273   2.68911   2.69051   2.69383   2.69683
 Alpha virt. eigenvalues --    2.69753   2.69877   2.69982   2.70094   2.70425
 Alpha virt. eigenvalues --    2.70886   2.71026   2.71296   2.71619   2.72007
 Alpha virt. eigenvalues --    2.72439   2.73195   2.73732   2.74080   2.74272
 Alpha virt. eigenvalues --    2.74550   2.74804   2.75297   2.75701   2.76419
 Alpha virt. eigenvalues --    2.76715   2.77366   2.77645   2.78127   2.78221
 Alpha virt. eigenvalues --    2.78318   2.78510   2.78670   2.79835   2.79912
 Alpha virt. eigenvalues --    2.80131   2.81836   2.82037   2.82604   2.83464
 Alpha virt. eigenvalues --    2.83734   2.84640   2.85056   2.85975   2.86335
 Alpha virt. eigenvalues --    2.86859   2.87385   2.88643   2.89825   2.89964
 Alpha virt. eigenvalues --    2.90036   2.90445   2.91046   2.91343   2.91958
 Alpha virt. eigenvalues --    2.92326   2.92556   2.92842   2.93401   2.93591
 Alpha virt. eigenvalues --    2.93850   2.94285   2.94589   2.95363   2.95658
 Alpha virt. eigenvalues --    2.96111   2.97711   2.97829   2.97849   2.98171
 Alpha virt. eigenvalues --    2.98326   3.00197   3.00866   3.02382   3.02905
 Alpha virt. eigenvalues --    3.04528   3.06934   3.07561   3.09102   3.09594
 Alpha virt. eigenvalues --    3.10461   3.11730   3.12334   3.13093   3.13421
 Alpha virt. eigenvalues --    3.14179   3.15366   3.16452   3.16680   3.17380
 Alpha virt. eigenvalues --    3.18849   3.19929   3.20781   3.21827   3.22108
 Alpha virt. eigenvalues --    3.25239   3.25876   3.27133   3.30851   3.32166
 Alpha virt. eigenvalues --    3.33585   3.34655   3.35054   3.36771   3.36891
 Alpha virt. eigenvalues --    3.42360   3.42996   3.43678   3.44203   3.44726
 Alpha virt. eigenvalues --    3.45576   3.46353   3.46777   3.47328   3.47407
 Alpha virt. eigenvalues --    3.51634   3.51818   3.54772   3.54934   3.55224
 Alpha virt. eigenvalues --    3.55364   3.56030   3.56043   3.56212   3.56702
 Alpha virt. eigenvalues --    3.57436   3.57826   3.58701   3.60064   3.60337
 Alpha virt. eigenvalues --    3.62641   3.65691   3.66728   3.70061   3.70708
 Alpha virt. eigenvalues --    3.70974   3.71034   3.75000   3.75129   3.78205
 Alpha virt. eigenvalues --    3.78776   3.82940   3.86015   3.93843   3.93958
 Alpha virt. eigenvalues --    4.02230   4.04378   4.05144   4.05499   4.06630
 Alpha virt. eigenvalues --    4.07293   4.07960   4.10797   4.11450   4.11586
 Alpha virt. eigenvalues --    4.12403   4.12596   4.14616   4.14936   4.19000
 Alpha virt. eigenvalues --    4.19198   4.19756   4.19866   4.21853   4.24050
 Alpha virt. eigenvalues --    4.26629   4.28477   4.31243   4.31849   4.61229
 Alpha virt. eigenvalues --    4.61781   4.90957   4.91186   4.91518   4.91640
 Alpha virt. eigenvalues --    4.96465   4.96751   4.99449   5.01181   5.03180
 Alpha virt. eigenvalues --    5.05457   5.13925   5.19025   5.26528   5.27314
 Alpha virt. eigenvalues --    5.28282   5.37106   8.18704  17.49038  17.50229
 Alpha virt. eigenvalues --   17.74160  23.55226  23.59377  23.59702  23.64396
 Alpha virt. eigenvalues --   23.77543  23.77752  24.01590  24.03718  24.04002
 Alpha virt. eigenvalues --   24.04106  24.04302  24.04571  24.04760  24.05709
 Alpha virt. eigenvalues --   24.08107  24.08880  24.10147  24.10360  24.17873
 Alpha virt. eigenvalues --   24.18102  24.19333  24.19381  24.19928  24.21452
 Alpha virt. eigenvalues --   24.21595  24.21836  24.24142  24.24370  24.25081
 Alpha virt. eigenvalues --   24.25302  24.29178  24.31075  24.32141  24.32395
 Alpha virt. eigenvalues --   24.33517  24.33726  35.71504  35.73807  49.96371
 Alpha virt. eigenvalues --   50.02499 189.35884
          Condensed to atoms (all electrons):
 Mulliken charges:
               1
     1  N   -0.631888
     2  C    0.224689
     3  C   -0.091550
     4  C   -0.104035
     5  C    0.240798
     6  C   -0.085060
     7  C   -0.115476
     8  C   -0.118296
     9  C   -0.053049
    10  C   -0.052249
    11  C   -0.119821
    12  C   -0.105464
    13  C   -0.086326
    14  H    0.136469
    15  H    0.105411
    16  H    0.107430
    17  H    0.100336
    18  H    0.099899
    19  H    0.108594
    20  H    0.111537
    21  H    0.128312
    22  C   -0.084461
    23  C    0.145406
    24  C   -0.036876
    25  C   -0.306321
    26  C    0.147398
    27  C   -0.027211
    28  H    0.171683
    29  H    0.175079
    30  H    0.166794
    31  N   -0.630067
    32  C    0.231072
    33  C   -0.098113
    34  C   -0.101261
    35  C    0.237018
    36  C   -0.082742
    37  C   -0.107002
    38  C   -0.119379
    39  C   -0.053644
    40  C   -0.052834
    41  C   -0.120283
    42  C   -0.106686
    43  C   -0.088574
    44  H    0.132525
    45  H    0.112471
    46  H    0.108171
    47  H    0.099262
    48  H    0.100019
    49  H    0.107805
    50  H    0.109848
    51  H    0.126542
    52  S    1.049931
    53  C   -0.316546
    54  C   -0.057390
    55  C   -0.027157
    56  C   -0.103488
    57  H    0.158724
    58  C   -0.099377
    59  H    0.149179
    60  C   -0.090906
    61  H    0.126155
    62  H    0.125614
    63  H    0.123759
    64  O   -0.494800
    65  O   -0.499601
 Sum of Mulliken charges =   0.00000
 Mulliken charges with hydrogens summed into heavy atoms:
               1
     1  N   -0.631888
     2  C    0.224689
     3  C   -0.091550
     4  C   -0.104035
     5  C    0.240798
     6  C    0.051409
     7  C   -0.010066
     8  C   -0.010865
     9  C    0.047288
    10  C    0.047650
    11  C   -0.011227
    12  C    0.006072
    13  C    0.041987
    22  C    0.087222
    23  C    0.145406
    24  C    0.138203
    25  C   -0.306321
    26  C    0.147398
    27  C    0.139583
    31  N   -0.630067
    32  C    0.231072
    33  C   -0.098113
    34  C   -0.101261
    35  C    0.237018
    36  C    0.049784
    37  C    0.005470
    38  C   -0.011208
    39  C    0.045618
    40  C    0.047185
    41  C   -0.012477
    42  C    0.003162
    43  C    0.037968
    52  S    1.049931
    53  C   -0.316546
    54  C    0.101334
    55  C    0.122021
    56  C    0.022667
    58  C    0.026237
    60  C    0.032852
    64  O   -0.494800
    65  O   -0.499601
 Electronic spatial extent (au):  <R**2>=          24655.2395
 Charge=              0.0000 electrons
 Dipole moment (field-independent basis, Debye):
    X=             -1.7057    Y=             -4.1521    Z=              2.2455  Tot=              5.0192
 Quadrupole moment (field-independent basis, Debye-Ang):
   XX=           -219.7893   YY=           -233.4529   ZZ=           -255.3019
   XY=             10.2959   XZ=             10.5588   YZ=             27.3197
 Traceless Quadrupole moment (field-independent basis, Debye-Ang):
   XX=             16.3921   YY=              2.7285   ZZ=            -19.1206
   XY=             10.2959   XZ=             10.5588   YZ=             27.3197
 Octapole moment (field-independent basis, Debye-Ang**2):
  XXX=            276.2863  YYY=             -1.6111  ZZZ=           1163.2712  XYY=            113.2443
  XXY=            -10.4925  XXZ=            346.5675  XZZ=             23.0647  YZZ=           -135.1570
  YYZ=            325.1896  XYZ=            -81.9897
 Hexadecapole moment (field-independent basis, Debye-Ang**3):
 XXXX=         -14790.2336 YYYY=          -4193.1131 ZZZZ=         -14788.3672 XXXY=            437.1282
 XXXZ=           -778.7136 YYYX=            250.8455 YYYZ=           -599.0424 ZZZX=           -660.3043
 ZZZY=            105.1550 XXYY=          -3355.5545 XXZZ=          -4689.6649 YYZZ=          -2685.7200
 XXYZ=           -156.4760 YYXZ=           -259.4923 ZZXY=            171.7206
 N-N= 4.609767071796D+03 E-N=-1.399111401886D+04  KE= 2.037422585977D+03
 No NMR shielding tensors so no spin-rotation constants.
 Leave Link  601 at Tue Jun 15 15:35:54 2021, MaxMem=  7864320000 cpu:               0.9 elap:               1.0
 (Enter /sw/linux/gaussian/g16/g16/l602.exe)
 FitSet:  NAtFit=    65 NAtPot=    65 NAtFrz=     0 MDM=    69 TotChg=   0.00000
 Merz-Kollman atomic radii used.

 **********************************************************************

            Electrostatic Properties Using The SCF Density.

 **********************************************************************

       Atomic Center    1 is at  -2.579880  0.664340 -0.382100
       Atomic Center    2 is at  -3.751890 -0.033640 -0.672290
       Atomic Center    3 is at  -4.715380  0.270180  0.306620
       Atomic Center    4 is at  -4.095730  1.194880  1.232730
       Atomic Center    5 is at  -2.782670  1.411710  0.776420
       Atomic Center    6 is at  -4.013730 -0.933320 -1.703320
       Atomic Center    7 is at  -5.274130 -1.508250 -1.746470
       Atomic Center    8 is at  -6.249880 -1.204560 -0.790390
       Atomic Center    9 is at  -5.975270 -0.320690  0.240150
       Atomic Center   10 is at  -4.544830  1.850690  2.376820
       Atomic Center   11 is at  -3.684100  2.709400  3.040050
       Atomic Center   12 is at  -2.385770  2.924570  2.564100
       Atomic Center   13 is at  -1.916050  2.285160  1.427720
       Atomic Center   14 is at  -3.264520 -1.185620 -2.444490
       Atomic Center   15 is at  -5.503910 -2.211960 -2.538550
       Atomic Center   16 is at  -7.225720 -1.670810 -0.856090
       Atomic Center   17 is at  -6.727160 -0.093780  0.987660
       Atomic Center   18 is at  -5.554670  1.692790  2.738640
       Atomic Center   19 is at  -4.017760  3.225800  3.932170
       Atomic Center   20 is at  -1.731690  3.609230  3.091530
       Atomic Center   21 is at  -0.914640  2.470720  1.059120
       Atomic Center   22 is at  -0.182870  0.277750 -0.510400
       Atomic Center   23 is at   0.979820  0.151000 -1.264150
       Atomic Center   24 is at   0.935870  0.299690 -2.649870
       Atomic Center   25 is at  -0.271560  0.628730 -3.238760
       Atomic Center   26 is at  -1.391470  0.584440 -1.131750
       Atomic Center   27 is at  -1.433880  0.797000 -2.504030
       Atomic Center   28 is at  -0.149340  0.130340  0.562100
       Atomic Center   29 is at   1.823350  0.163200 -3.255380
       Atomic Center   30 is at  -2.359590  1.086980 -2.984620
       Atomic Center   31 is at   2.197880 -0.161200 -0.630240
       Atomic Center   32 is at   3.390790  0.548210 -0.771140
       Atomic Center   33 is at   4.376800 -0.057980  0.028070
       Atomic Center   34 is at   3.752300 -1.189510  0.680120
       Atomic Center   35 is at   2.412880 -1.220470  0.250580
       Atomic Center   36 is at   3.655720  1.692920 -1.518090
       Atomic Center   37 is at   4.940240  2.210440 -1.462350
       Atomic Center   38 is at   5.936340  1.613110 -0.681710
       Atomic Center   39 is at   5.660370  0.482020  0.068210
       Atomic Center   40 is at   4.217220 -2.164130  1.560130
       Atomic Center   41 is at   3.346450 -3.151360  1.990920
       Atomic Center   42 is at   2.021490 -3.176870  1.541850
       Atomic Center   43 is at   1.535370 -2.218650  0.666120
       Atomic Center   44 is at   2.891710  2.168250 -2.120830
       Atomic Center   45 is at   5.174680  3.098710 -2.037430
       Atomic Center   46 is at   6.930230  2.044130 -0.663400
       Atomic Center   47 is at   6.429100  0.023720  0.680320
       Atomic Center   48 is at   5.247330 -2.150320  1.898270
       Atomic Center   49 is at   3.692570 -3.915130  2.677070
       Atomic Center   50 is at   1.358320 -3.963640  1.882600
       Atomic Center   51 is at   0.511300 -2.255700  0.315410
       Atomic Center   52 is at  -0.376760  0.747030 -5.024540
       Atomic Center   53 is at  -1.184580 -0.798160 -5.423470
       Atomic Center   54 is at  -2.570720 -0.829050 -5.509210
       Atomic Center   55 is at  -0.414340 -1.942710 -5.580880
       Atomic Center   56 is at  -3.198780 -2.043760 -5.751110
       Atomic Center   57 is at  -3.139110  0.087370 -5.405750
       Atomic Center   58 is at  -1.054370 -3.150180 -5.825000
       Atomic Center   59 is at   0.665810 -1.880080 -5.526600
       Atomic Center   60 is at  -2.442050 -3.200450 -5.903720
       Atomic Center   61 is at  -4.278930 -2.084220 -5.826890
       Atomic Center   62 is at  -0.468860 -4.052220 -5.956360
       Atomic Center   63 is at  -2.936290 -4.146420 -6.092500
       Atomic Center   64 is at  -1.295730  1.824120 -5.346860
       Atomic Center   65 is at   0.978710  0.709210 -5.544770
    2455 points will be used for fitting atomic charges
 Fitting point charges to electrostatic potential
 Charges from ESP fit, RMS=   0.00150 RRMS=   0.10805:
 ESP charges:
               1
     1  N   -0.268458
     2  C    0.225821
     3  C    0.012076
     4  C   -0.074674
     5  C    0.242147
     6  C   -0.279403
     7  C   -0.085374
     8  C   -0.197626
     9  C   -0.174294
    10  C   -0.125600
    11  C   -0.211313
    12  C   -0.093918
    13  C   -0.290313
    14  H    0.134968
    15  H    0.124335
    16  H    0.143540
    17  H    0.157126
    18  H    0.145723
    19  H    0.147972
    20  H    0.138909
    21  H    0.169551
    22  C   -0.355976
    23  C    0.350120
    24  C   -0.390137
    25  C    0.106645
    26  C    0.396155
    27  C   -0.406032
    28  H    0.178973
    29  H    0.222424
    30  H    0.216264
    31  N   -0.354838
    32  C    0.389881
    33  C   -0.198067
    34  C    0.028227
    35  C    0.288118
    36  C   -0.389571
    37  C   -0.038847
    38  C   -0.258508
    39  C   -0.052798
    40  C   -0.158808
    41  C   -0.217331
    42  C   -0.103615
    43  C   -0.290123
    44  H    0.205571
    45  H    0.130806
    46  H    0.152754
    47  H    0.133257
    48  H    0.154220
    49  H    0.149132
    50  H    0.138771
    51  H    0.160789
    52  S    0.934695
    53  C    0.014152
    54  C   -0.137489
    55  C   -0.189650
    56  C   -0.067051
    57  H    0.140830
    58  C   -0.083092
    59  H    0.166196
    60  C   -0.139141
    61  H    0.121965
    62  H    0.133603
    63  H    0.135480
    64  O   -0.528332
    65  O   -0.530820
 Sum of ESP charges =   0.00000
 ESP charges with hydrogens summed into heavy atoms:
               1
     1  N   -0.268458
     2  C    0.225821
     3  C    0.012076
     4  C   -0.074674
     5  C    0.242147
     6  C   -0.144435
     7  C    0.038960
     8  C   -0.054087
     9  C   -0.017167
    10  C    0.020123
    11  C   -0.063342
    12  C    0.044991
    13  C   -0.120761
    22  C   -0.177003
    23  C    0.350120
    24  C   -0.167713
    25  C    0.106645
    26  C    0.396155
    27  C   -0.189767
    31  N   -0.354838
    32  C    0.389881
    33  C   -0.198067
    34  C    0.028227
    35  C    0.288118
    36  C   -0.184000
    37  C    0.091960
    38  C   -0.105754
    39  C    0.080459
    40  C   -0.004588
    41  C   -0.068199
    42  C    0.035157
    43  C   -0.129334
    52  S    0.934695
    53  C    0.014152
    54  C    0.003341
    55  C   -0.023454
    56  C    0.054914
    58  C    0.050511
    60  C   -0.003662
    64  O   -0.528332
    65  O   -0.530820
 Charge=   0.00000 Dipole=    -1.7209    -4.1472     2.2789 Tot=     5.0353
 -----------------------------------------------------------------

              Electrostatic Properties (Atomic Units)

 -----------------------------------------------------------------
    Center     Electric         -------- Electric Field --------
               Potential          X             Y             Z
 -----------------------------------------------------------------
    1 Atom    -18.327295
    2 Atom    -14.724253
    3 Atom    -14.763388
    4 Atom    -14.764144
    5 Atom    -14.725090
    6 Atom    -14.763695
    7 Atom    -14.765706
    8 Atom    -14.772470
    9 Atom    -14.764665
   10 Atom    -14.765859
   11 Atom    -14.774159
   12 Atom    -14.767848
   13 Atom    -14.765123
   14 Atom     -1.090083
   15 Atom     -1.100529
   16 Atom     -1.104682
   17 Atom     -1.097355
   18 Atom     -1.098344
   19 Atom     -1.106603
   20 Atom     -1.103591
   21 Atom     -1.091824
   22 Atom    -14.739022
   23 Atom    -14.692660
   24 Atom    -14.737592
   25 Atom    -14.719256
   26 Atom    -14.692796
   27 Atom    -14.737340
   28 Atom     -1.067028
   29 Atom     -1.069698
   30 Atom     -1.066889
   31 Atom    -18.328924
   32 Atom    -14.727260
   33 Atom    -14.766289
   34 Atom    -14.765449
   35 Atom    -14.726047
   36 Atom    -14.767832
   37 Atom    -14.770410
   38 Atom    -14.776287
   39 Atom    -14.767960
   40 Atom    -14.766776
   41 Atom    -14.774727
   42 Atom    -14.768260
   43 Atom    -14.765515
   44 Atom     -1.095030
   45 Atom     -1.106349
   46 Atom     -1.108650
   47 Atom     -1.100263
   48 Atom     -1.099282
   49 Atom     -1.106951
   50 Atom     -1.103606
   51 Atom     -1.091952
   52 Atom    -59.028519
   53 Atom    -14.725979
   54 Atom    -14.740903
   55 Atom    -14.741055
   56 Atom    -14.745853
   57 Atom     -1.077167
   58 Atom    -14.746448
   59 Atom     -1.077211
   60 Atom    -14.744710
   61 Atom     -1.081348
   62 Atom     -1.082289
   63 Atom     -1.081274
   64 Atom    -22.380045
   65 Atom    -22.378939
 -----------------------------------------------------------------
 Leave Link  602 at Tue Jun 15 15:35:55 2021, MaxMem=  7864320000 cpu:               1.3 elap:               1.4
 (Enter /sw/linux/gaussian/g16/g16/l9999.exe)
 1\1\GINC-THINC345\SP\RwB97XD\6-311G(d,p)\C36H24N2O2S1\LINK\15-Jun-2021
 \0\\#P wb97xd/6-311g(d,p) nosymm pop=MK\\Title Card Required\\0,1\N,0,
 -2.57988,0.66434,-0.3821\C,0,-3.75189,-0.03364,-0.67229\C,0,-4.71538,0
 .27018,0.30662\C,0,-4.09573,1.19488,1.23273\C,0,-2.78267,1.41171,0.776
 42\C,0,-4.01373,-0.93332,-1.70332\C,0,-5.27413,-1.50825,-1.74647\C,0,-
 6.24988,-1.20456,-0.79039\C,0,-5.97527,-0.32069,0.24015\C,0,-4.54483,1
 .85069,2.37682\C,0,-3.6841,2.7094,3.04005\C,0,-2.38577,2.92457,2.5641\
 C,0,-1.91605,2.28516,1.42772\H,0,-3.26452,-1.18562,-2.44449\H,0,-5.503
 91,-2.21196,-2.53855\H,0,-7.22572,-1.67081,-0.85609\H,0,-6.72716,-0.09
 378,0.98766\H,0,-5.55467,1.69279,2.73864\H,0,-4.01776,3.2258,3.93217\H
 ,0,-1.73169,3.60923,3.09153\H,0,-0.91464,2.47072,1.05912\C,0,-0.18287,
 0.27775,-0.5104\C,0,0.97982,0.151,-1.26415\C,0,0.93587,0.29969,-2.6498
 7\C,0,-0.27156,0.62873,-3.23876\C,0,-1.39147,0.58444,-1.13175\C,0,-1.4
 3388,0.797,-2.50403\H,0,-0.14934,0.13034,0.5621\H,0,1.82335,0.1632,-3.
 25538\H,0,-2.35959,1.08698,-2.98462\N,0,2.19788,-0.1612,-0.63024\C,0,3
 .39079,0.54821,-0.77114\C,0,4.3768,-0.05798,0.02807\C,0,3.7523,-1.1895
 1,0.68012\C,0,2.41288,-1.22047,0.25058\C,0,3.65572,1.69292,-1.51809\C,
 0,4.94024,2.21044,-1.46235\C,0,5.93634,1.61311,-0.68171\C,0,5.66037,0.
 48202,0.06821\C,0,4.21722,-2.16413,1.56013\C,0,3.34645,-3.15136,1.9909
 2\C,0,2.02149,-3.17687,1.54185\C,0,1.53537,-2.21865,0.66612\H,0,2.8917
 1,2.16825,-2.12083\H,0,5.17468,3.09871,-2.03743\H,0,6.93023,2.04413,-0
 .6634\H,0,6.4291,0.02372,0.68032\H,0,5.24733,-2.15032,1.89827\H,0,3.69
 257,-3.91513,2.67707\H,0,1.35832,-3.96364,1.8826\H,0,0.5113,-2.2557,0.
 31541\S,0,-0.37676,0.74703,-5.02454\C,0,-1.18458,-0.79816,-5.42347\C,0
 ,-2.57072,-0.82905,-5.50921\C,0,-0.41434,-1.94271,-5.58088\C,0,-3.1987
 8,-2.04376,-5.75111\H,0,-3.13911,0.08737,-5.40575\C,0,-1.05437,-3.1501
 8,-5.825\H,0,0.66581,-1.88008,-5.5266\C,0,-2.44205,-3.20045,-5.90372\H
 ,0,-4.27893,-2.08422,-5.82689\H,0,-0.46886,-4.05222,-5.95636\H,0,-2.93
 629,-4.14642,-6.0925\O,0,-1.29573,1.82412,-5.34686\O,0,0.97871,0.70921
 ,-5.54477\\Version=ES64L-G16RevB.01\HF=-2044.2380957\RMSD=5.051e-09\Di
 pole=-0.6710616,-1.6335802,0.8834459\Quadrupole=12.1871281,2.0285505,-
 14.2156785,7.6547476,7.8501856,20.3114904\PG=C01 [X(C36H24N2O2S1)]\\@


 Standing in the middle of the road is very dangerous;
 you get knocked down by the traffic from both sides.
                                -- Margaret Thatcher
 Job cpu time:       0 days  0 hours 50 minutes 40.3 seconds.
 Elapsed time:       0 days  0 hours 50 minutes 40.5 seconds.
 File lengths (MBytes):  RWF=    431 Int=      0 D2E=      0 Chk=     47 Scr=      1
 Normal termination of Gaussian 16 at Tue Jun 15 15:35:56 2021.
