 Entering Gaussian System, Link 0=g16
 Input=MK.com
 Output=MK.log
 Initial command:
 /sw/linux/gaussian/g16/g16/l1.exe "/usr/scratch/link/Gau-28424.inp" -scrdir="/usr/scratch/link/"
 Entering Link 1 = /sw/linux/gaussian/g16/g16/l1.exe PID=     28426.
  
 Copyright (c) 1988-2017, Gaussian, Inc.  All Rights Reserved.
  
 This is part of the Gaussian(R) 16 program.  It is based on
 the Gaussian(R) 09 system (copyright 2009, Gaussian, Inc.),
 the Gaussian(R) 03 system (copyright 2003, Gaussian, Inc.),
 the Gaussian(R) 98 system (copyright 1998, Gaussian, Inc.),
 the Gaussian(R) 94 system (copyright 1995, Gaussian, Inc.),
 the Gaussian 92(TM) system (copyright 1992, Gaussian, Inc.),
 the Gaussian 90(TM) system (copyright 1990, Gaussian, Inc.),
 the Gaussian 88(TM) system (copyright 1988, Gaussian, Inc.),
 the Gaussian 86(TM) system (copyright 1986, Carnegie Mellon
 University), and the Gaussian 82(TM) system (copyright 1983,
 Carnegie Mellon University). Gaussian is a federally registered
 trademark of Gaussian, Inc.
  
 This software contains proprietary and confidential information,
 including trade secrets, belonging to Gaussian, Inc.
  
 This software is provided under written license and may be
 used, copied, transmitted, or stored only in accord with that
 written license.
  
 The following legend is applicable only to US Government
 contracts under FAR:
  
                    RESTRICTED RIGHTS LEGEND
  
 Use, reproduction and disclosure by the US Government is
 subject to restrictions as set forth in subparagraphs (a)
 and (c) of the Commercial Computer Software - Restricted
 Rights clause in FAR 52.227-19.
  
 Gaussian, Inc.
 340 Quinnipiac St., Bldg. 40, Wallingford CT 06492
  
  
 ---------------------------------------------------------------
 Warning -- This program may not be used in any manner that
 competes with the business of Gaussian, Inc. or will provide
 assistance to any competitor of Gaussian, Inc.  The licensee
 of this program is prohibited from giving any competitor of
 Gaussian, Inc. access to this program.  By using this program,
 the user acknowledges that Gaussian, Inc. is engaged in the
 business of creating and licensing software in the field of
 computational chemistry and represents and warrants to the
 licensee that it is not a competitor of Gaussian, Inc. and that
 it will not use this program in any manner prohibited above.
 ---------------------------------------------------------------
  

 Cite this work as:
 Gaussian 16, Revision B.01,
 M. J. Frisch, G. W. Trucks, H. B. Schlegel, G. E. Scuseria, 
 M. A. Robb, J. R. Cheeseman, G. Scalmani, V. Barone, 
 G. A. Petersson, H. Nakatsuji, X. Li, M. Caricato, A. V. Marenich, 
 J. Bloino, B. G. Janesko, R. Gomperts, B. Mennucci, H. P. Hratchian, 
 J. V. Ortiz, A. F. Izmaylov, J. L. Sonnenberg, D. Williams-Young, 
 F. Ding, F. Lipparini, F. Egidi, J. Goings, B. Peng, A. Petrone, 
 T. Henderson, D. Ranasinghe, V. G. Zakrzewski, J. Gao, N. Rega, 
 G. Zheng, W. Liang, M. Hada, M. Ehara, K. Toyota, R. Fukuda, 
 J. Hasegawa, M. Ishida, T. Nakajima, Y. Honda, O. Kitao, H. Nakai, 
 T. Vreven, K. Throssell, J. A. Montgomery, Jr., J. E. Peralta, 
 F. Ogliaro, M. J. Bearpark, J. J. Heyd, E. N. Brothers, K. N. Kudin, 
 V. N. Staroverov, T. A. Keith, R. Kobayashi, J. Normand, 
 K. Raghavachari, A. P. Rendell, J. C. Burant, S. S. Iyengar, 
 J. Tomasi, M. Cossi, J. M. Millam, M. Klene, C. Adamo, R. Cammi, 
 J. W. Ochterski, R. L. Martin, K. Morokuma, O. Farkas, 
 J. B. Foresman, and D. J. Fox, Gaussian, Inc., Wallingford CT, 2016.
 
 ******************************************
 Gaussian 16:  ES64L-G16RevB.01 20-Dec-2017
                15-Jun-2021 
 ******************************************
 %mem=60000MB
 -----------------------------------
 #P wb97xd/6-311g(d,p) nosymm pop=MK
 -----------------------------------
 1/38=1,172=1/1;
 2/12=2,15=1,17=6,18=5,40=1/2;
 3/5=4,6=6,7=101,11=2,25=1,30=1,74=-58/1,2,3;
 4//1;
 5/5=2,38=5/2;
 6/7=2,8=2,9=2,10=2,15=8,20=1,28=1/1,2;
 99/5=1,9=1/99;
 Leave Link    1 at Tue Jun 15 14:46:28 2021, MaxMem=  7864320000 cpu:               0.0 elap:               0.0
 (Enter /sw/linux/gaussian/g16/g16/l101.exe)
 -------------------
 Title Card Required
 -------------------
 Symbolic Z-matrix:
 Charge =  0 Multiplicity = 1
 N                    -0.03221  -0.03843   0.08721 
 C                    -1.44203  -0.13411   0.09301 
 C                    -2.20442   0.53812  -0.86383 
 C                    -3.58674   0.45087  -0.84754 
 C                    -4.25569  -0.32329   0.10348 
 C                    -3.48226  -0.99992   1.04943 
 C                    -2.10044  -0.90123   1.0555 
 H                    -1.70637   1.14261  -1.61276 
 H                    -4.1588    1.00245  -1.5858 
 H                    -3.96976  -1.62298   1.7915 
 H                    -1.52087  -1.43317   1.80082 
 C                     0.58998   1.20481  -0.17722 
 C                     1.71615   1.27163  -0.99874 
 C                     2.3182    2.49726  -1.2384 
 C                     1.80042   3.66232  -0.68685 
 C                     0.66963   3.61251   0.12676 
 C                     0.08251   2.37709   0.38354 
 H                     2.11546   0.3643   -1.43596 
 H                     3.19627   2.54442  -1.87291 
 H                     2.27739   4.61596  -0.8873 
 H                    -0.7888    2.31803   1.02741 
 C                     0.75648  -1.18307   0.34521 
 C                     1.90132  -1.08875   1.13952 
 C                     2.67773  -2.21256   1.38212 
 C                     2.3173   -3.44777   0.85657 
 C                     1.1729   -3.54516   0.07382 
 C                     0.40143  -2.42295  -0.19081 
 H                     2.17947  -0.1291    1.5591 
 H                     3.56478  -2.1225    1.99914 
 H                     2.9218   -4.32497   1.05476 
 H                     0.88273  -4.50096  -0.34801 
 H                    -0.48425  -2.50042  -0.81047 
 N                    -9.95657  -0.72207   0.11458 
 C                    -8.5472   -0.6202    0.11346 
 C                    -7.83574  -0.62343  -1.08764 
 C                    -6.45327  -0.53825  -1.0847 
 C                    -5.73406  -0.42432   0.10738 
 C                    -6.45698  -0.40996   1.30242 
 C                    -7.8382   -0.51718   1.31144 
 H                    -8.37347  -0.70925  -2.02457 
 H                    -5.92077  -0.56911  -2.02916 
 H                    -5.92991  -0.30557   2.24465 
 H                    -8.37813  -0.50693   2.251 
 C                    -10.59963  -1.61488  -0.77563 
 C                    -11.76299  -1.23099  -1.44442 
 C                    -12.38449  -2.12204  -2.30546 
 C                    -11.85042  -3.38552  -2.52608 
 C                    -10.68331  -3.77888  -1.87363 
 C                    -10.07577  -2.88938  -0.99208 
 H                    -12.17496  -0.24264  -1.27924 
 H                    -13.29102  -1.82215  -2.81935 
 H                    -12.34304  -4.07112  -3.20751 
 H                    -9.17522  -3.18479  -0.46384 
 C                    -10.72357   0.05851   1.0095 
 C                    -11.83141  -0.49209   1.65761 
 C                    -12.58756   0.28056   2.52702 
 C                    -12.24258   1.60293   2.78011 
 C                    -11.1345   2.14948   2.1435 
 C                    -10.38429   1.39057   1.257 
 H                    -12.09728  -1.52581   1.4704 
 H                    -13.44605  -0.16111   3.02058 
 H                    -12.83097   2.20114   3.46577 
 H                    -10.85687   3.18156   2.32632 
 H                    -9.52749   1.82344   0.75408 
 C                     0.07976   4.86959   0.71153 
 H                     0.83877   5.64547   0.83145 
 H                    -0.70263   5.26842   0.05813 
 H                    -0.37186   4.67983   1.68766 
 C                    -10.07592  -5.13552  -2.12015 
 H                    -10.82726  -5.85085  -2.46084 
 H                    -9.29976  -5.0764   -2.88967 
 H                    -9.61166  -5.53305  -1.21491 
 
 ITRead=  0  0  0  0  0  0  0  0  0  0  0  0  0  0  0  0  0  0  0  0
 ITRead=  0  0  0  0  0  0  0  0  0  0  0  0  0  0  0  0  0  0  0  0
 ITRead=  0  0  0  0  0  0  0  0  0  0  0  0  0  0  0  0  0  0  0  0
 ITRead=  0  0  0  0  0  0  0  0  0  0  0  0
 MicOpt= -1 -1 -1 -1 -1 -1 -1 -1 -1 -1 -1 -1 -1 -1 -1 -1 -1 -1 -1 -1
 MicOpt= -1 -1 -1 -1 -1 -1 -1 -1 -1 -1 -1 -1 -1 -1 -1 -1 -1 -1 -1 -1
 MicOpt= -1 -1 -1 -1 -1 -1 -1 -1 -1 -1 -1 -1 -1 -1 -1 -1 -1 -1 -1 -1
 MicOpt= -1 -1 -1 -1 -1 -1 -1 -1 -1 -1 -1 -1
 NAtoms=     72 NQM=       72 NQMF=       0 NMMI=      0 NMMIF=      0
                NMic=       0 NMicF=      0.
                    Isotopes and Nuclear Properties:
 (Nuclear quadrupole moments (NQMom) in fm**2, nuclear magnetic moments (NMagM)
  in nuclear magnetons)

  Atom         1           2           3           4           5           6           7           8           9          10
 IAtWgt=          14          12          12          12          12          12          12           1           1           1
 AtmWgt=  14.0030740  12.0000000  12.0000000  12.0000000  12.0000000  12.0000000  12.0000000   1.0078250   1.0078250   1.0078250
 NucSpn=           2           0           0           0           0           0           0           1           1           1
 AtZEff=   0.0000000   0.0000000   0.0000000   0.0000000   0.0000000   0.0000000   0.0000000   0.0000000   0.0000000   0.0000000
 NQMom=    2.0440000   0.0000000   0.0000000   0.0000000   0.0000000   0.0000000   0.0000000   0.0000000   0.0000000   0.0000000
 NMagM=    0.4037610   0.0000000   0.0000000   0.0000000   0.0000000   0.0000000   0.0000000   2.7928460   2.7928460   2.7928460
 AtZNuc=   7.0000000   6.0000000   6.0000000   6.0000000   6.0000000   6.0000000   6.0000000   1.0000000   1.0000000   1.0000000

  Atom        11          12          13          14          15          16          17          18          19          20
 IAtWgt=           1          12          12          12          12          12          12           1           1           1
 AtmWgt=   1.0078250  12.0000000  12.0000000  12.0000000  12.0000000  12.0000000  12.0000000   1.0078250   1.0078250   1.0078250
 NucSpn=           1           0           0           0           0           0           0           1           1           1
 AtZEff=   0.0000000   0.0000000   0.0000000   0.0000000   0.0000000   0.0000000   0.0000000   0.0000000   0.0000000   0.0000000
 NQMom=    0.0000000   0.0000000   0.0000000   0.0000000   0.0000000   0.0000000   0.0000000   0.0000000   0.0000000   0.0000000
 NMagM=    2.7928460   0.0000000   0.0000000   0.0000000   0.0000000   0.0000000   0.0000000   2.7928460   2.7928460   2.7928460
 AtZNuc=   1.0000000   6.0000000   6.0000000   6.0000000   6.0000000   6.0000000   6.0000000   1.0000000   1.0000000   1.0000000

  Atom        21          22          23          24          25          26          27          28          29          30
 IAtWgt=           1          12          12          12          12          12          12           1           1           1
 AtmWgt=   1.0078250  12.0000000  12.0000000  12.0000000  12.0000000  12.0000000  12.0000000   1.0078250   1.0078250   1.0078250
 NucSpn=           1           0           0           0           0           0           0           1           1           1
 AtZEff=   0.0000000   0.0000000   0.0000000   0.0000000   0.0000000   0.0000000   0.0000000   0.0000000   0.0000000   0.0000000
 NQMom=    0.0000000   0.0000000   0.0000000   0.0000000   0.0000000   0.0000000   0.0000000   0.0000000   0.0000000   0.0000000
 NMagM=    2.7928460   0.0000000   0.0000000   0.0000000   0.0000000   0.0000000   0.0000000   2.7928460   2.7928460   2.7928460
 AtZNuc=   1.0000000   6.0000000   6.0000000   6.0000000   6.0000000   6.0000000   6.0000000   1.0000000   1.0000000   1.0000000

  Atom        31          32          33          34          35          36          37          38          39          40
 IAtWgt=           1           1          14          12          12          12          12          12          12           1
 AtmWgt=   1.0078250   1.0078250  14.0030740  12.0000000  12.0000000  12.0000000  12.0000000  12.0000000  12.0000000   1.0078250
 NucSpn=           1           1           2           0           0           0           0           0           0           1
 AtZEff=   0.0000000   0.0000000   0.0000000   0.0000000   0.0000000   0.0000000   0.0000000   0.0000000   0.0000000   0.0000000
 NQMom=    0.0000000   0.0000000   2.0440000   0.0000000   0.0000000   0.0000000   0.0000000   0.0000000   0.0000000   0.0000000
 NMagM=    2.7928460   2.7928460   0.4037610   0.0000000   0.0000000   0.0000000   0.0000000   0.0000000   0.0000000   2.7928460
 AtZNuc=   1.0000000   1.0000000   7.0000000   6.0000000   6.0000000   6.0000000   6.0000000   6.0000000   6.0000000   1.0000000

  Atom        41          42          43          44          45          46          47          48          49          50
 IAtWgt=           1           1           1          12          12          12          12          12          12           1
 AtmWgt=   1.0078250   1.0078250   1.0078250  12.0000000  12.0000000  12.0000000  12.0000000  12.0000000  12.0000000   1.0078250
 NucSpn=           1           1           1           0           0           0           0           0           0           1
 AtZEff=   0.0000000   0.0000000   0.0000000   0.0000000   0.0000000   0.0000000   0.0000000   0.0000000   0.0000000   0.0000000
 NQMom=    0.0000000   0.0000000   0.0000000   0.0000000   0.0000000   0.0000000   0.0000000   0.0000000   0.0000000   0.0000000
 NMagM=    2.7928460   2.7928460   2.7928460   0.0000000   0.0000000   0.0000000   0.0000000   0.0000000   0.0000000   2.7928460
 AtZNuc=   1.0000000   1.0000000   1.0000000   6.0000000   6.0000000   6.0000000   6.0000000   6.0000000   6.0000000   1.0000000

  Atom        51          52          53          54          55          56          57          58          59          60
 IAtWgt=           1           1           1          12          12          12          12          12          12           1
 AtmWgt=   1.0078250   1.0078250   1.0078250  12.0000000  12.0000000  12.0000000  12.0000000  12.0000000  12.0000000   1.0078250
 NucSpn=           1           1           1           0           0           0           0           0           0           1
 AtZEff=   0.0000000   0.0000000   0.0000000   0.0000000   0.0000000   0.0000000   0.0000000   0.0000000   0.0000000   0.0000000
 NQMom=    0.0000000   0.0000000   0.0000000   0.0000000   0.0000000   0.0000000   0.0000000   0.0000000   0.0000000   0.0000000
 NMagM=    2.7928460   2.7928460   2.7928460   0.0000000   0.0000000   0.0000000   0.0000000   0.0000000   0.0000000   2.7928460
 AtZNuc=   1.0000000   1.0000000   1.0000000   6.0000000   6.0000000   6.0000000   6.0000000   6.0000000   6.0000000   1.0000000

  Atom        61          62          63          64          65          66          67          68          69          70
 IAtWgt=           1           1           1           1          12           1           1           1          12           1
 AtmWgt=   1.0078250   1.0078250   1.0078250   1.0078250  12.0000000   1.0078250   1.0078250   1.0078250  12.0000000   1.0078250
 NucSpn=           1           1           1           1           0           1           1           1           0           1
 AtZEff=   0.0000000   0.0000000   0.0000000   0.0000000   0.0000000   0.0000000   0.0000000   0.0000000   0.0000000   0.0000000
 NQMom=    0.0000000   0.0000000   0.0000000   0.0000000   0.0000000   0.0000000   0.0000000   0.0000000   0.0000000   0.0000000
 NMagM=    2.7928460   2.7928460   2.7928460   2.7928460   0.0000000   2.7928460   2.7928460   2.7928460   0.0000000   2.7928460
 AtZNuc=   1.0000000   1.0000000   1.0000000   1.0000000   6.0000000   1.0000000   1.0000000   1.0000000   6.0000000   1.0000000

  Atom        71          72
 IAtWgt=           1           1
 AtmWgt=   1.0078250   1.0078250
 NucSpn=           1           1
 AtZEff=   0.0000000   0.0000000
 NQMom=    0.0000000   0.0000000
 NMagM=    2.7928460   2.7928460
 AtZNuc=   1.0000000   1.0000000
 Leave Link  101 at Tue Jun 15 14:46:28 2021, MaxMem=  7864320000 cpu:               0.2 elap:               0.2
 (Enter /sw/linux/gaussian/g16/g16/l202.exe)
 Symmetry turned off by external request.
 Stoichiometry    C38H32N2
 Framework group  C1[X(C38H32N2)]
 Deg. of freedom   210
 Full point group                 C1      NOp   1
                          Input orientation:                          
 ---------------------------------------------------------------------
 Center     Atomic      Atomic             Coordinates (Angstroms)
 Number     Number       Type             X           Y           Z
 ---------------------------------------------------------------------
      1          7           0       -0.032210   -0.038430    0.087210
      2          6           0       -1.442030   -0.134110    0.093010
      3          6           0       -2.204420    0.538120   -0.863830
      4          6           0       -3.586740    0.450870   -0.847540
      5          6           0       -4.255690   -0.323290    0.103480
      6          6           0       -3.482260   -0.999920    1.049430
      7          6           0       -2.100440   -0.901230    1.055500
      8          1           0       -1.706370    1.142610   -1.612760
      9          1           0       -4.158800    1.002450   -1.585800
     10          1           0       -3.969760   -1.622980    1.791500
     11          1           0       -1.520870   -1.433170    1.800820
     12          6           0        0.589980    1.204810   -0.177220
     13          6           0        1.716150    1.271630   -0.998740
     14          6           0        2.318200    2.497260   -1.238400
     15          6           0        1.800420    3.662320   -0.686850
     16          6           0        0.669630    3.612510    0.126760
     17          6           0        0.082510    2.377090    0.383540
     18          1           0        2.115460    0.364300   -1.435960
     19          1           0        3.196270    2.544420   -1.872910
     20          1           0        2.277390    4.615960   -0.887300
     21          1           0       -0.788800    2.318030    1.027410
     22          6           0        0.756480   -1.183070    0.345210
     23          6           0        1.901320   -1.088750    1.139520
     24          6           0        2.677730   -2.212560    1.382120
     25          6           0        2.317300   -3.447770    0.856570
     26          6           0        1.172900   -3.545160    0.073820
     27          6           0        0.401430   -2.422950   -0.190810
     28          1           0        2.179470   -0.129100    1.559100
     29          1           0        3.564780   -2.122500    1.999140
     30          1           0        2.921800   -4.324970    1.054760
     31          1           0        0.882730   -4.500960   -0.348010
     32          1           0       -0.484250   -2.500420   -0.810470
     33          7           0       -9.956570   -0.722070    0.114580
     34          6           0       -8.547200   -0.620200    0.113460
     35          6           0       -7.835740   -0.623430   -1.087640
     36          6           0       -6.453270   -0.538250   -1.084700
     37          6           0       -5.734060   -0.424320    0.107380
     38          6           0       -6.456980   -0.409960    1.302420
     39          6           0       -7.838200   -0.517180    1.311440
     40          1           0       -8.373470   -0.709250   -2.024570
     41          1           0       -5.920770   -0.569110   -2.029160
     42          1           0       -5.929910   -0.305570    2.244650
     43          1           0       -8.378130   -0.506930    2.251000
     44          6           0      -10.599630   -1.614880   -0.775630
     45          6           0      -11.762990   -1.230990   -1.444420
     46          6           0      -12.384490   -2.122040   -2.305460
     47          6           0      -11.850420   -3.385520   -2.526080
     48          6           0      -10.683310   -3.778880   -1.873630
     49          6           0      -10.075770   -2.889380   -0.992080
     50          1           0      -12.174960   -0.242640   -1.279240
     51          1           0      -13.291020   -1.822150   -2.819350
     52          1           0      -12.343040   -4.071120   -3.207510
     53          1           0       -9.175220   -3.184790   -0.463840
     54          6           0      -10.723570    0.058510    1.009500
     55          6           0      -11.831410   -0.492090    1.657610
     56          6           0      -12.587560    0.280560    2.527020
     57          6           0      -12.242580    1.602930    2.780110
     58          6           0      -11.134500    2.149480    2.143500
     59          6           0      -10.384290    1.390570    1.257000
     60          1           0      -12.097280   -1.525810    1.470400
     61          1           0      -13.446050   -0.161110    3.020580
     62          1           0      -12.830970    2.201140    3.465770
     63          1           0      -10.856870    3.181560    2.326320
     64          1           0       -9.527490    1.823440    0.754080
     65          6           0        0.079760    4.869590    0.711530
     66          1           0        0.838770    5.645470    0.831450
     67          1           0       -0.702630    5.268420    0.058130
     68          1           0       -0.371860    4.679830    1.687660
     69          6           0      -10.075920   -5.135520   -2.120150
     70          1           0      -10.827260   -5.850850   -2.460840
     71          1           0       -9.299760   -5.076400   -2.889670
     72          1           0       -9.611660   -5.533050   -1.214910
 ---------------------------------------------------------------------
 Rotational constants (GHZ):           0.1596182           0.0316380           0.0286188
 Leave Link  202 at Tue Jun 15 14:46:28 2021, MaxMem=  7864320000 cpu:               0.0 elap:               0.0
 (Enter /sw/linux/gaussian/g16/g16/l301.exe)
 Standard basis: 6-311G(d,p) (5D, 7F)
 Ernie: Thresh=  0.10000D-02 Tol=  0.10000D-05 Strict=F.
   912 basis functions,  1536 primitive gaussians,   952 cartesian basis functions
   137 alpha electrons      137 beta electrons
       nuclear repulsion energy      3872.6255758791 Hartrees.
 IExCor= 4639 DFT=T Ex+Corr=wB97XD ExCW=0 ScaHFX=  1.000000
 ScaDFX=  1.000000  1.000000  1.000000  1.000000 ScalE2=  1.000000  1.000000
 IRadAn=      5 IRanWt=     -1 IRanGd=            0 ICorTp=0 IEmpDi=121
 HFx  wShort=  0.000000 wLong=  0.200000 cFull=  0.222036 cShort=  0.000000 cLong=  0.777964
 DFx  wShort=  0.000000 wLong=  0.200000 cFull=  0.000000 cShort=  0.000000 cLong=  1.000000
 NAtoms=   72 NActive=   72 NUniq=   72 SFac= 1.00D+00 NAtFMM=   60 NAOKFM=T Big=T
 Integral buffers will be    131072 words long.
 Raffenetti 2 integral format.
 Two-electron integral symmetry is turned off.
 R6Disp:  Grimme-D2 Dispersion energy=       -0.0588224227 Hartrees.
 Nuclear repulsion after empirical dispersion term =     3872.5667534564 Hartrees.
 Leave Link  301 at Tue Jun 15 14:46:28 2021, MaxMem=  7864320000 cpu:               0.1 elap:               0.1
 (Enter /sw/linux/gaussian/g16/g16/l302.exe)
 NPDir=0 NMtPBC=     1 NCelOv=     1 NCel=       1 NClECP=     1 NCelD=      1
         NCelK=      1 NCelE2=     1 NClLst=     1 CellRange=     0.0.
 One-electron integrals computed using PRISM.
 NBasis=   912 RedAO= T EigKep=  1.45D-04  NBF=   912
 NBsUse=   912 1.00D-06 EigRej= -1.00D+00 NBFU=   912
 Precomputing XC quadrature grid using
 IXCGrd= 4 IRadAn=           5 IRanWt=          -1 IRanGd=           0 AccXCQ= 0.00D+00.
 Generated NRdTot=       0 NPtTot=           0 NUsed=           0 NTot=          32
 NSgBfM=   887   887   887   887   887 MxSgAt=    72 MxSgA2=    72.
 Leave Link  302 at Tue Jun 15 14:46:35 2021, MaxMem=  7864320000 cpu:               7.0 elap:               7.1
 (Enter /sw/linux/gaussian/g16/g16/l303.exe)
 DipDrv:  MaxL=1.
 Leave Link  303 at Tue Jun 15 14:46:35 2021, MaxMem=  7864320000 cpu:               0.2 elap:               0.2
 (Enter /sw/linux/gaussian/g16/g16/l401.exe)
 ExpMin= 1.03D-01 ExpMax= 6.29D+03 ExpMxC= 9.49D+02 IAcc=3 IRadAn=         5 AccDes= 0.00D+00
 Harris functional with IExCor= 4639 and IRadAn=       5 diagonalized for initial guess.
 HarFok:  IExCor= 4639 AccDes= 0.00D+00 IRadAn=         5 IDoV= 1 UseB2=F ITyADJ=14
 ICtDFT=  3500011 ScaDFX=  1.000000  1.000000  1.000000  1.000000
 FoFCou: FMM=F IPFlag=           0 FMFlag=      100000 FMFlg1=        2001
         NFxFlg=           0 DoJE=T BraDBF=F KetDBF=T FulRan=T
         wScrn=  0.000000 ICntrl=       500 IOpCl=  0 I1Cent=   200000004 NGrid=           0
         NMat0=    1 NMatS0=      1 NMatT0=    0 NMatD0=    1 NMtDS0=    0 NMtDT0=    0
 Symmetry not used in FoFCou.
 Harris En= -1504.97099884308    
 JPrj=0 DoOrth=F DoCkMO=F.
 Leave Link  401 at Tue Jun 15 14:47:54 2021, MaxMem=  7864320000 cpu:              78.8 elap:              78.8
 (Enter /sw/linux/gaussian/g16/g16/l502.exe)
 Two-electron integral symmetry not used.
 Closed shell SCF:
 Using DIIS extrapolation, IDIIS=  1040.
 NGot=  7864320000 LenX=  7862494522 LenY=  7861587266
 Requested convergence on RMS density matrix=1.00D-08 within 128 cycles.
 Requested convergence on MAX density matrix=1.00D-06.
 Requested convergence on             energy=1.00D-06.
 No special actions if energy rises.
 Fock matrices will be formed incrementally for  20 cycles.
 Integral accuracy reduced to 1.0D-05 until final iterations.

 Cycle   1  Pass 0  IDiag  1:
 FoFJK:  IHMeth= 1 ICntrl=       0 DoSepK=T KAlg= 0 I1Cent=           0 FoldK=F
 IRaf=         1 NMat=       1 IRICut=       1 DoRegI=T DoRafI=F ISym2E= 0 IDoP0=0 IntGTp=1.
 FoFCou: FMM=T IPFlag=           0 FMFlag=      100000 FMFlg1=        2001
         NFxFlg=           0 DoJE=T BraDBF=F KetDBF=F FulRan=T
         wScrn=  0.000000 ICntrl=       500 IOpCl=  0 I1Cent=           0 NGrid=           0
         NMat0=    1 NMatS0=      1 NMatT0=    0 NMatD0=    1 NMtDS0=    0 NMtDT0=    0
 Symmetry not used in FoFCou.
 FMM levels:  10  Number of levels for PrismC:   9
 E= -1576.18007600178    
 DIIS: error= 6.24D-02 at cycle   1 NSaved=   1.
 NSaved= 1 IEnMin= 1 EnMin= -1576.18007600178     IErMin= 1 ErrMin= 6.24D-02
 ErrMax= 6.24D-02  0.00D+00 EMaxC= 1.00D-01 BMatC= 3.41D+00 BMatP= 3.41D+00
 IDIUse=3 WtCom= 3.76D-01 WtEn= 6.24D-01
 Coeff-Com:  0.100D+01
 Coeff-En:   0.100D+01
 Coeff:      0.100D+01
 Gap=     0.344 Goal=   None    Shift=    0.000
 GapD=    0.344 DampG=1.000 DampE=0.500 DampFc=0.5000 IDamp=-1.
 Damping current iteration by 5.00D-01
 RMSDP=1.25D-03 MaxDP=8.74D-02              OVMax= 1.95D-01

 Cycle   2  Pass 0  IDiag  1:
 RMSU=  6.17D-04    CP:  9.84D-01
 E= -1576.39747199212     Delta-E=       -0.217395990335 Rises=F Damp=T
 DIIS: error= 3.00D-02 at cycle   2 NSaved=   2.
 NSaved= 2 IEnMin= 2 EnMin= -1576.39747199212     IErMin= 2 ErrMin= 3.00D-02
 ErrMax= 3.00D-02  0.00D+00 EMaxC= 1.00D-01 BMatC= 7.47D-01 BMatP= 3.41D+00
 IDIUse=3 WtCom= 7.00D-01 WtEn= 3.00D-01
 Coeff-Com: -0.639D+00 0.164D+01
 Coeff-En:   0.000D+00 0.100D+01
 Coeff:     -0.447D+00 0.145D+01
 Gap=     0.289 Goal=   None    Shift=    0.000
 RMSDP=7.84D-04 MaxDP=4.63D-02 DE=-2.17D-01 OVMax= 2.23D-01

 Cycle   3  Pass 0  IDiag  1:
 RMSU=  7.55D-04    CP:  9.74D-01  6.73D-01
 E= -1576.43655299725     Delta-E=       -0.039081005130 Rises=F Damp=F
 DIIS: error= 3.08D-02 at cycle   3 NSaved=   3.
 NSaved= 3 IEnMin= 3 EnMin= -1576.43655299725     IErMin= 2 ErrMin= 3.00D-02
 ErrMax= 3.08D-02  0.00D+00 EMaxC= 1.00D-01 BMatC= 2.42D-01 BMatP= 7.47D-01
 IDIUse=3 WtCom= 6.92D-01 WtEn= 3.08D-01
 Coeff-Com: -0.402D+00 0.860D+00 0.542D+00
 Coeff-En:   0.000D+00 0.402D+00 0.598D+00
 Coeff:     -0.278D+00 0.719D+00 0.559D+00
 Gap=     0.312 Goal=   None    Shift=    0.000
 RMSDP=6.67D-04 MaxDP=4.51D-02 DE=-3.91D-02 OVMax= 1.34D-01

 Cycle   4  Pass 0  IDiag  1:
 RMSU=  1.54D-04    CP:  9.69D-01  1.50D+00  4.70D-01
 E= -1576.64738980574     Delta-E=       -0.210836808495 Rises=F Damp=F
 DIIS: error= 6.78D-03 at cycle   4 NSaved=   4.
 NSaved= 4 IEnMin= 4 EnMin= -1576.64738980574     IErMin= 4 ErrMin= 6.78D-03
 ErrMax= 6.78D-03  0.00D+00 EMaxC= 1.00D-01 BMatC= 2.13D-02 BMatP= 2.42D-01
 IDIUse=3 WtCom= 9.32D-01 WtEn= 6.78D-02
 Coeff-Com: -0.124D+00 0.271D+00 0.316D+00 0.538D+00
 Coeff-En:   0.000D+00 0.000D+00 0.413D-01 0.959D+00
 Coeff:     -0.116D+00 0.253D+00 0.297D+00 0.566D+00
 Gap=     0.274 Goal=   None    Shift=    0.000
 RMSDP=1.75D-04 MaxDP=1.00D-02 DE=-2.11D-01 OVMax= 2.77D-02

 Cycle   5  Pass 0  IDiag  1:
 RMSU=  5.56D-05    CP:  9.70D-01  1.32D+00  6.27D-01  8.07D-01
 E= -1576.66782591445     Delta-E=       -0.020436108703 Rises=F Damp=F
 DIIS: error= 1.19D-03 at cycle   5 NSaved=   5.
 NSaved= 5 IEnMin= 5 EnMin= -1576.66782591445     IErMin= 5 ErrMin= 1.19D-03
 ErrMax= 1.19D-03  0.00D+00 EMaxC= 1.00D-01 BMatC= 3.44D-04 BMatP= 2.13D-02
 IDIUse=3 WtCom= 9.88D-01 WtEn= 1.19D-02
 Coeff-Com:  0.308D-01-0.642D-01-0.115D-03 0.185D+00 0.848D+00
 Coeff-En:   0.000D+00 0.000D+00 0.000D+00 0.000D+00 0.100D+01
 Coeff:      0.305D-01-0.634D-01-0.114D-03 0.183D+00 0.850D+00
 Gap=     0.275 Goal=   None    Shift=    0.000
 RMSDP=3.00D-05 MaxDP=2.68D-03 DE=-2.04D-02 OVMax= 8.77D-03

 Cycle   6  Pass 0  IDiag  1:
 RMSU=  2.09D-05    CP:  9.70D-01  1.33D+00  6.28D-01  9.30D-01  9.25D-01
 E= -1576.66822896189     Delta-E=       -0.000403047447 Rises=F Damp=F
 DIIS: error= 3.61D-04 at cycle   6 NSaved=   6.
 NSaved= 6 IEnMin= 6 EnMin= -1576.66822896189     IErMin= 6 ErrMin= 3.61D-04
 ErrMax= 3.61D-04  0.00D+00 EMaxC= 1.00D-01 BMatC= 5.58D-05 BMatP= 3.44D-04
 IDIUse=3 WtCom= 9.96D-01 WtEn= 3.61D-03
 Coeff-Com:  0.247D-01-0.528D-01-0.291D-01 0.240D-01 0.387D+00 0.646D+00
 Coeff-En:   0.000D+00 0.000D+00 0.000D+00 0.000D+00 0.000D+00 0.100D+01
 Coeff:      0.246D-01-0.526D-01-0.290D-01 0.239D-01 0.386D+00 0.647D+00
 Gap=     0.275 Goal=   None    Shift=    0.000
 RMSDP=1.09D-05 MaxDP=6.36D-04 DE=-4.03D-04 OVMax= 1.90D-03

 Cycle   7  Pass 0  IDiag  1:
 RMSU=  8.14D-06    CP:  9.70D-01  1.33D+00  6.32D-01  9.41D-01  1.03D+00
                    CP:  9.89D-01
 E= -1576.66829131907     Delta-E=       -0.000062357179 Rises=F Damp=F
 DIIS: error= 9.41D-05 at cycle   7 NSaved=   7.
 NSaved= 7 IEnMin= 7 EnMin= -1576.66829131907     IErMin= 7 ErrMin= 9.41D-05
 ErrMax= 9.41D-05  0.00D+00 EMaxC= 1.00D-01 BMatC= 1.95D-06 BMatP= 5.58D-05
 IDIUse=1 WtCom= 1.00D+00 WtEn= 0.00D+00
 Coeff-Com:  0.218D-02-0.471D-02-0.434D-02-0.900D-02-0.115D-02 0.101D+00
 Coeff-Com:  0.916D+00
 Coeff:      0.218D-02-0.471D-02-0.434D-02-0.900D-02-0.115D-02 0.101D+00
 Coeff:      0.916D+00
 Gap=     0.275 Goal=   None    Shift=    0.000
 RMSDP=9.62D-06 MaxDP=2.36D-04 DE=-6.24D-05 OVMax= 1.27D-03

 Initial convergence to 1.0D-05 achieved.  Increase integral accuracy.
 Cycle   8  Pass 1  IDiag  1:
 E= -1576.66824841202     Delta-E=        0.000042907054 Rises=F Damp=F
 DIIS: error= 2.06D-04 at cycle   1 NSaved=   1.
 NSaved= 1 IEnMin= 1 EnMin= -1576.66824841202     IErMin= 1 ErrMin= 2.06D-04
 ErrMax= 2.06D-04  0.00D+00 EMaxC= 1.00D-01 BMatC= 1.55D-05 BMatP= 1.55D-05
 IDIUse=3 WtCom= 9.98D-01 WtEn= 2.06D-03
 Coeff-Com:  0.100D+01
 Coeff-En:   0.100D+01
 Coeff:      0.100D+01
 Gap=     0.275 Goal=   None    Shift=    0.000
 RMSDP=9.62D-06 MaxDP=2.36D-04 DE= 4.29D-05 OVMax= 5.17D-04

 Cycle   9  Pass 1  IDiag  1:
 RMSU=  8.23D-05    CP:  1.00D+00
 E= -1576.66826254798     Delta-E=       -0.000014135958 Rises=F Damp=F
 DIIS: error= 3.50D-05 at cycle   2 NSaved=   2.
 NSaved= 2 IEnMin= 2 EnMin= -1576.66826254798     IErMin= 2 ErrMin= 3.50D-05
 ErrMax= 3.50D-05  0.00D+00 EMaxC= 1.00D-01 BMatC= 9.98D-07 BMatP= 1.55D-05
 IDIUse=1 WtCom= 1.00D+00 WtEn= 0.00D+00
 Coeff-Com:  0.704D-01 0.930D+00
 Coeff:      0.704D-01 0.930D+00
 Gap=     0.275 Goal=   None    Shift=    0.000
 RMSDP=4.33D-06 MaxDP=1.13D-04 DE=-1.41D-05 OVMax= 3.80D-04

 Cycle  10  Pass 1  IDiag  1:
 RMSU=  2.19D-06    CP:  1.00D+00  1.05D+00
 E= -1576.66826251614     Delta-E=        0.000000031835 Rises=F Damp=F
 DIIS: error= 4.15D-05 at cycle   3 NSaved=   3.
 NSaved= 3 IEnMin= 2 EnMin= -1576.66826254798     IErMin= 2 ErrMin= 3.50D-05
 ErrMax= 4.15D-05  0.00D+00 EMaxC= 1.00D-01 BMatC= 1.18D-06 BMatP= 9.98D-07
 IDIUse=1 WtCom= 1.00D+00 WtEn= 0.00D+00
 Coeff-Com: -0.243D-01 0.528D+00 0.497D+00
 Coeff:     -0.243D-01 0.528D+00 0.497D+00
 Gap=     0.275 Goal=   None    Shift=    0.000
 RMSDP=1.19D-06 MaxDP=6.09D-05 DE= 3.18D-08 OVMax= 1.61D-04

 Cycle  11  Pass 1  IDiag  1:
 RMSU=  7.04D-07    CP:  1.00D+00  1.05D+00  6.42D-01
 E= -1576.66826364379     Delta-E=       -0.000001127652 Rises=F Damp=F
 DIIS: error= 6.82D-06 at cycle   4 NSaved=   4.
 NSaved= 4 IEnMin= 4 EnMin= -1576.66826364379     IErMin= 4 ErrMin= 6.82D-06
 ErrMax= 6.82D-06  0.00D+00 EMaxC= 1.00D-01 BMatC= 8.41D-09 BMatP= 9.98D-07
 IDIUse=1 WtCom= 1.00D+00 WtEn= 0.00D+00
 Coeff-Com: -0.962D-02 0.173D+00 0.164D+00 0.672D+00
 Coeff:     -0.962D-02 0.173D+00 0.164D+00 0.672D+00
 Gap=     0.275 Goal=   None    Shift=    0.000
 RMSDP=1.57D-07 MaxDP=1.01D-05 DE=-1.13D-06 OVMax= 5.27D-05

 Cycle  12  Pass 1  IDiag  1:
 RMSU=  1.38D-07    CP:  1.00D+00  1.05D+00  6.68D-01  1.04D+00
 E= -1576.66826365517     Delta-E=       -0.000000011374 Rises=F Damp=F
 DIIS: error= 3.42D-06 at cycle   5 NSaved=   5.
 NSaved= 5 IEnMin= 5 EnMin= -1576.66826365517     IErMin= 5 ErrMin= 3.42D-06
 ErrMax= 3.42D-06  0.00D+00 EMaxC= 1.00D-01 BMatC= 2.97D-09 BMatP= 8.41D-09
 IDIUse=1 WtCom= 1.00D+00 WtEn= 0.00D+00
 Coeff-Com:  0.403D-02-0.104D+00-0.108D+00 0.307D+00 0.901D+00
 Coeff:      0.403D-02-0.104D+00-0.108D+00 0.307D+00 0.901D+00
 Gap=     0.275 Goal=   None    Shift=    0.000
 RMSDP=1.43D-07 MaxDP=7.05D-06 DE=-1.14D-08 OVMax= 3.33D-05

 Cycle  13  Pass 1  IDiag  1:
 RMSU=  1.08D-07    CP:  1.00D+00  1.05D+00  6.71D-01  1.17D+00  1.07D+00
 E= -1576.66826366124     Delta-E=       -0.000000006068 Rises=F Damp=F
 DIIS: error= 1.54D-06 at cycle   6 NSaved=   6.
 NSaved= 6 IEnMin= 6 EnMin= -1576.66826366124     IErMin= 6 ErrMin= 1.54D-06
 ErrMax= 1.54D-06  0.00D+00 EMaxC= 1.00D-01 BMatC= 3.31D-10 BMatP= 2.97D-09
 IDIUse=1 WtCom= 1.00D+00 WtEn= 0.00D+00
 Coeff-Com:  0.244D-02-0.551D-01-0.582D-01 0.573D-01 0.375D+00 0.678D+00
 Coeff:      0.244D-02-0.551D-01-0.582D-01 0.573D-01 0.375D+00 0.678D+00
 Gap=     0.275 Goal=   None    Shift=    0.000
 RMSDP=3.32D-08 MaxDP=1.86D-06 DE=-6.07D-09 OVMax= 1.34D-05

 Cycle  14  Pass 1  IDiag  1:
 RMSU=  2.49D-08    CP:  1.00D+00  1.05D+00  6.71D-01  1.18D+00  1.21D+00
                    CP:  1.04D+00
 E= -1576.66826366161     Delta-E=       -0.000000000374 Rises=F Damp=F
 DIIS: error= 2.24D-07 at cycle   7 NSaved=   7.
 NSaved= 7 IEnMin= 7 EnMin= -1576.66826366161     IErMin= 7 ErrMin= 2.24D-07
 ErrMax= 2.24D-07  0.00D+00 EMaxC= 1.00D-01 BMatC= 5.81D-11 BMatP= 3.31D-10
 IDIUse=1 WtCom= 1.00D+00 WtEn= 0.00D+00
 Coeff-Com:  0.305D-03-0.468D-02-0.591D-02-0.404D-01-0.208D-01 0.272D+00
 Coeff-Com:  0.800D+00
 Coeff:      0.305D-03-0.468D-02-0.591D-02-0.404D-01-0.208D-01 0.272D+00
 Coeff:      0.800D+00
 Gap=     0.275 Goal=   None    Shift=    0.000
 RMSDP=1.91D-08 MaxDP=9.23D-07 DE=-3.74D-10 OVMax= 3.84D-06

 Cycle  15  Pass 1  IDiag  1:
 RMSU=  7.93D-09    CP:  1.00D+00  1.05D+00  6.70D-01  1.18D+00  1.25D+00
                    CP:  1.19D+00  9.78D-01
 E= -1576.66826366184     Delta-E=       -0.000000000229 Rises=F Damp=F
 DIIS: error= 1.07D-07 at cycle   8 NSaved=   8.
 NSaved= 8 IEnMin= 8 EnMin= -1576.66826366184     IErMin= 8 ErrMin= 1.07D-07
 ErrMax= 1.07D-07  0.00D+00 EMaxC= 1.00D-01 BMatC= 6.65D-12 BMatP= 5.81D-11
 IDIUse=1 WtCom= 1.00D+00 WtEn= 0.00D+00
 Coeff-Com: -0.204D-03 0.564D-02 0.526D-02-0.257D-01-0.568D-01 0.516D-01
 Coeff-Com:  0.363D+00 0.657D+00
 Coeff:     -0.204D-03 0.564D-02 0.526D-02-0.257D-01-0.568D-01 0.516D-01
 Coeff:      0.363D+00 0.657D+00
 Gap=     0.275 Goal=   None    Shift=    0.000
 RMSDP=3.92D-09 MaxDP=1.65D-07 DE=-2.29D-10 OVMax= 7.77D-07

 SCF Done:  E(RwB97XD) =  -1576.66826366     A.U. after   15 cycles
            NFock= 15  Conv=0.39D-08     -V/T= 2.0042
 KE= 1.570137491365D+03 PE=-1.140526638294D+04 EE= 4.385893874458D+03
 Leave Link  502 at Tue Jun 15 15:27:24 2021, MaxMem=  7864320000 cpu:            2369.8 elap:            2369.9
 (Enter /sw/linux/gaussian/g16/g16/l601.exe)
 Copying SCF densities to generalized density rwf, IOpCl= 0 IROHF=0.

 **********************************************************************

            Population analysis using the SCF Density.

 **********************************************************************

 Alpha  occ. eigenvalues --  -14.45925 -14.45921 -10.32945 -10.32942 -10.32924
 Alpha  occ. eigenvalues --  -10.32921 -10.32815 -10.32813 -10.29636 -10.29632
 Alpha  occ. eigenvalues --  -10.29441 -10.29411 -10.28776 -10.28774 -10.28771
 Alpha  occ. eigenvalues --  -10.28771 -10.28753 -10.28750 -10.28748 -10.28743
 Alpha  occ. eigenvalues --  -10.28628 -10.28623 -10.28494 -10.28492 -10.28487
 Alpha  occ. eigenvalues --  -10.28486 -10.28382 -10.28379 -10.28369 -10.28363
 Alpha  occ. eigenvalues --  -10.28223 -10.28216 -10.28078 -10.28069 -10.27995
 Alpha  occ. eigenvalues --  -10.27991 -10.27914 -10.27911 -10.27873 -10.27863
 Alpha  occ. eigenvalues --   -1.07346  -1.07340  -0.97524  -0.96441  -0.96429
 Alpha  occ. eigenvalues --   -0.96055  -0.94881  -0.93959  -0.88600  -0.87537
 Alpha  occ. eigenvalues --   -0.87032  -0.86109  -0.86060  -0.85112  -0.85075
 Alpha  occ. eigenvalues --   -0.84803  -0.84486  -0.84001  -0.81751  -0.79917
 Alpha  occ. eigenvalues --   -0.78628  -0.78320  -0.73669  -0.72955  -0.72218
 Alpha  occ. eigenvalues --   -0.71112  -0.70780  -0.69945  -0.69830  -0.69026
 Alpha  occ. eigenvalues --   -0.68991  -0.67898  -0.66269  -0.65808  -0.63288
 Alpha  occ. eigenvalues --   -0.62606  -0.61921  -0.61570  -0.60058  -0.58659
 Alpha  occ. eigenvalues --   -0.57859  -0.57556  -0.56905  -0.56474  -0.56021
 Alpha  occ. eigenvalues --   -0.55026  -0.54392  -0.54272  -0.53490  -0.53159
 Alpha  occ. eigenvalues --   -0.52944  -0.52276  -0.52268  -0.51599  -0.51536
 Alpha  occ. eigenvalues --   -0.51299  -0.51050  -0.50896  -0.50793  -0.50760
 Alpha  occ. eigenvalues --   -0.50482  -0.49590  -0.49580  -0.48766  -0.47783
 Alpha  occ. eigenvalues --   -0.47440  -0.47072  -0.46346  -0.46187  -0.45738
 Alpha  occ. eigenvalues --   -0.45082  -0.45073  -0.44929  -0.44576  -0.44230
 Alpha  occ. eigenvalues --   -0.43596  -0.43446  -0.43250  -0.43076  -0.42594
 Alpha  occ. eigenvalues --   -0.42213  -0.42075  -0.41683  -0.39678  -0.38828
 Alpha  occ. eigenvalues --   -0.35595  -0.34043  -0.34016  -0.33644  -0.33622
 Alpha  occ. eigenvalues --   -0.32856  -0.32736  -0.32532  -0.32034  -0.31437
 Alpha  occ. eigenvalues --   -0.26310  -0.24734
 Alpha virt. eigenvalues --    0.02793   0.04367   0.04477   0.04987   0.05003
 Alpha virt. eigenvalues --    0.06498   0.06807   0.06999   0.07099   0.07143
 Alpha virt. eigenvalues --    0.09260   0.11334   0.11766   0.12044   0.13104
 Alpha virt. eigenvalues --    0.13106   0.13524   0.14492   0.14586   0.14876
 Alpha virt. eigenvalues --    0.14940   0.15977   0.16008   0.16654   0.16803
 Alpha virt. eigenvalues --    0.17027   0.17755   0.17890   0.18056   0.18485
 Alpha virt. eigenvalues --    0.18981   0.19079   0.19118   0.19795   0.19856
 Alpha virt. eigenvalues --    0.20224   0.20488   0.20926   0.20979   0.21328
 Alpha virt. eigenvalues --    0.21463   0.22225   0.22404   0.22536   0.23082
 Alpha virt. eigenvalues --    0.23570   0.24106   0.24242   0.25584   0.25835
 Alpha virt. eigenvalues --    0.26203   0.26376   0.29091   0.29245   0.30003
 Alpha virt. eigenvalues --    0.30509   0.31791   0.31826   0.32782   0.32834
 Alpha virt. eigenvalues --    0.34042   0.34306   0.34580   0.34618   0.35105
 Alpha virt. eigenvalues --    0.35142   0.35180   0.35325   0.35420   0.36446
 Alpha virt. eigenvalues --    0.36729   0.37139   0.37299   0.38109   0.38130
 Alpha virt. eigenvalues --    0.38554   0.38698   0.39065   0.39764   0.40035
 Alpha virt. eigenvalues --    0.40515   0.40896   0.41045   0.41591   0.42161
 Alpha virt. eigenvalues --    0.42364   0.42850   0.43730   0.43948   0.44679
 Alpha virt. eigenvalues --    0.45197   0.45560   0.45812   0.45948   0.46359
 Alpha virt. eigenvalues --    0.46580   0.46656   0.46902   0.47157   0.47204
 Alpha virt. eigenvalues --    0.47632   0.47676   0.47960   0.48333   0.48760
 Alpha virt. eigenvalues --    0.49046   0.49283   0.49301   0.49774   0.49867
 Alpha virt. eigenvalues --    0.50069   0.50229   0.50704   0.50823   0.51276
 Alpha virt. eigenvalues --    0.51390   0.51480   0.51600   0.51755   0.51912
 Alpha virt. eigenvalues --    0.52080   0.52154   0.52761   0.52909   0.53319
 Alpha virt. eigenvalues --    0.53328   0.53779   0.53992   0.54086   0.54417
 Alpha virt. eigenvalues --    0.54830   0.55174   0.55916   0.56709   0.57201
 Alpha virt. eigenvalues --    0.57759   0.57947   0.58044   0.58648   0.58877
 Alpha virt. eigenvalues --    0.58979   0.59989   0.60249   0.60298   0.60363
 Alpha virt. eigenvalues --    0.61014   0.61627   0.61810   0.62394   0.62546
 Alpha virt. eigenvalues --    0.63200   0.63224   0.63391   0.63901   0.64119
 Alpha virt. eigenvalues --    0.64672   0.64783   0.64969   0.65094   0.65202
 Alpha virt. eigenvalues --    0.65836   0.66286   0.66378   0.66745   0.67309
 Alpha virt. eigenvalues --    0.67426   0.67475   0.68536   0.68859   0.69167
 Alpha virt. eigenvalues --    0.69365   0.69513   0.69668   0.69772   0.69805
 Alpha virt. eigenvalues --    0.70146   0.70344   0.70680   0.70764   0.70889
 Alpha virt. eigenvalues --    0.71075   0.71119   0.71304   0.71604   0.71797
 Alpha virt. eigenvalues --    0.71890   0.72879   0.72906   0.72973   0.73269
 Alpha virt. eigenvalues --    0.73450   0.73802   0.73956   0.74216   0.74408
 Alpha virt. eigenvalues --    0.74801   0.75049   0.75213   0.76168   0.76407
 Alpha virt. eigenvalues --    0.76623   0.77475   0.77777   0.78453   0.78481
 Alpha virt. eigenvalues --    0.79385   0.80059   0.80803   0.81092   0.81825
 Alpha virt. eigenvalues --    0.81968   0.82609   0.83572   0.83787   0.84303
 Alpha virt. eigenvalues --    0.85182   0.85292   0.86629   0.86974   0.87422
 Alpha virt. eigenvalues --    0.87510   0.88152   0.88296   0.89147   0.89477
 Alpha virt. eigenvalues --    0.89573   0.90624   0.90909   0.91175   0.91558
 Alpha virt. eigenvalues --    0.91601   0.91922   0.92374   0.93057   0.93424
 Alpha virt. eigenvalues --    0.94179   0.94511   0.94702   0.94757   0.95220
 Alpha virt. eigenvalues --    0.95247   0.95567   0.96026   0.97476   0.98327
 Alpha virt. eigenvalues --    0.98715   0.99041   0.99100   1.00908   1.01302
 Alpha virt. eigenvalues --    1.01786   1.02045   1.02160   1.02693   1.02861
 Alpha virt. eigenvalues --    1.03486   1.03669   1.04122   1.04813   1.04871
 Alpha virt. eigenvalues --    1.06083   1.06457   1.06509   1.07343   1.07395
 Alpha virt. eigenvalues --    1.09097   1.09168   1.09664   1.09685   1.10504
 Alpha virt. eigenvalues --    1.10733   1.11154   1.11961   1.12123   1.12855
 Alpha virt. eigenvalues --    1.13104   1.13375   1.14175   1.14287   1.15183
 Alpha virt. eigenvalues --    1.15416   1.15746   1.16150   1.17079   1.17847
 Alpha virt. eigenvalues --    1.17926   1.18112   1.18152   1.18179   1.19078
 Alpha virt. eigenvalues --    1.19870   1.20534   1.21066   1.21428   1.21470
 Alpha virt. eigenvalues --    1.21705   1.21815   1.22134   1.22157   1.23316
 Alpha virt. eigenvalues --    1.23857   1.26205   1.26532   1.27202   1.31236
 Alpha virt. eigenvalues --    1.33965   1.34372   1.34798   1.35078   1.35411
 Alpha virt. eigenvalues --    1.35443   1.36180   1.38893   1.39717   1.41074
 Alpha virt. eigenvalues --    1.42595   1.43078   1.43423   1.43821   1.45269
 Alpha virt. eigenvalues --    1.45358   1.45660   1.47006   1.48115   1.48664
 Alpha virt. eigenvalues --    1.48902   1.48985   1.49208   1.50222   1.51200
 Alpha virt. eigenvalues --    1.53239   1.53518   1.53597   1.54214   1.54649
 Alpha virt. eigenvalues --    1.54978   1.54987   1.55630   1.55660   1.55680
 Alpha virt. eigenvalues --    1.55980   1.56465   1.56535   1.57042   1.58263
 Alpha virt. eigenvalues --    1.58453   1.58778   1.59166   1.59805   1.60109
 Alpha virt. eigenvalues --    1.60170   1.60566   1.60828   1.61144   1.61665
 Alpha virt. eigenvalues --    1.61934   1.62324   1.62846   1.63352   1.63636
 Alpha virt. eigenvalues --    1.63897   1.64178   1.64572   1.64627   1.64925
 Alpha virt. eigenvalues --    1.65190   1.66039   1.66277   1.66922   1.66941
 Alpha virt. eigenvalues --    1.67745   1.68535   1.68762   1.69973   1.70097
 Alpha virt. eigenvalues --    1.70168   1.71078   1.71262   1.71407   1.71776
 Alpha virt. eigenvalues --    1.72656   1.72720   1.73596   1.73713   1.73859
 Alpha virt. eigenvalues --    1.74107   1.75065   1.75433   1.76370   1.76729
 Alpha virt. eigenvalues --    1.77068   1.77359   1.77461   1.78079   1.78449
 Alpha virt. eigenvalues --    1.78568   1.78942   1.79684   1.79969   1.80233
 Alpha virt. eigenvalues --    1.81613   1.81692   1.82359   1.82372   1.83380
 Alpha virt. eigenvalues --    1.83977   1.84555   1.84721   1.85659   1.85859
 Alpha virt. eigenvalues --    1.86378   1.86465   1.86534   1.86856   1.87136
 Alpha virt. eigenvalues --    1.87386   1.87781   1.89350   1.89416   1.90384
 Alpha virt. eigenvalues --    1.90569   1.90837   1.90934   1.93806   1.94386
 Alpha virt. eigenvalues --    1.95016   1.95197   1.96159   1.97057   1.97990
 Alpha virt. eigenvalues --    1.98269   1.98521   1.99004   1.99453   1.99962
 Alpha virt. eigenvalues --    2.00074   2.00262   2.00478   2.00818   2.00994
 Alpha virt. eigenvalues --    2.01156   2.01413   2.01460   2.01806   2.01923
 Alpha virt. eigenvalues --    2.02550   2.02589   2.02858   2.02981   2.03244
 Alpha virt. eigenvalues --    2.03772   2.03853   2.03969   2.04550   2.04661
 Alpha virt. eigenvalues --    2.04977   2.06308   2.06476   2.06723   2.07410
 Alpha virt. eigenvalues --    2.07711   2.07851   2.08490   2.08996   2.09163
 Alpha virt. eigenvalues --    2.09231   2.09538   2.11082   2.11228   2.11381
 Alpha virt. eigenvalues --    2.11985   2.12063   2.12729   2.13131   2.14036
 Alpha virt. eigenvalues --    2.14074   2.14567   2.15021   2.17165   2.17197
 Alpha virt. eigenvalues --    2.17552   2.18053   2.20296   2.20373   2.20516
 Alpha virt. eigenvalues --    2.23103   2.24499   2.24610   2.26698   2.26943
 Alpha virt. eigenvalues --    2.28321   2.28885   2.29853   2.30108   2.31690
 Alpha virt. eigenvalues --    2.32382   2.32471   2.32869   2.34752   2.36131
 Alpha virt. eigenvalues --    2.36351   2.37205   2.38316   2.39642   2.39991
 Alpha virt. eigenvalues --    2.40124   2.40382   2.41822   2.42265   2.42577
 Alpha virt. eigenvalues --    2.42856   2.43079   2.43285   2.44272   2.44426
 Alpha virt. eigenvalues --    2.44564   2.44949   2.45423   2.45619   2.47258
 Alpha virt. eigenvalues --    2.47502   2.47595   2.47725   2.49135   2.49209
 Alpha virt. eigenvalues --    2.49668   2.51277   2.51541   2.52903   2.52988
 Alpha virt. eigenvalues --    2.54740   2.56578   2.56807   2.59085   2.61063
 Alpha virt. eigenvalues --    2.61799   2.62224   2.62422   2.62997   2.63326
 Alpha virt. eigenvalues --    2.63874   2.64657   2.64669   2.65500   2.65721
 Alpha virt. eigenvalues --    2.66797   2.67795   2.69551   2.69578   2.69959
 Alpha virt. eigenvalues --    2.70159   2.70458   2.70663   2.70690   2.70905
 Alpha virt. eigenvalues --    2.71429   2.71486   2.71738   2.71931   2.72031
 Alpha virt. eigenvalues --    2.72132   2.72429   2.72831   2.73142   2.73863
 Alpha virt. eigenvalues --    2.74346   2.74569   2.75207   2.75338   2.75423
 Alpha virt. eigenvalues --    2.75524   2.75847   2.76150   2.76236   2.76367
 Alpha virt. eigenvalues --    2.76399   2.76951   2.77384   2.77552   2.77651
 Alpha virt. eigenvalues --    2.79133   2.79473   2.80051   2.80460   2.80517
 Alpha virt. eigenvalues --    2.82010   2.82250   2.83191   2.84837   2.85032
 Alpha virt. eigenvalues --    2.85448   2.85598   2.86779   2.86916   2.88183
 Alpha virt. eigenvalues --    2.88368   2.88629   2.89734   2.89921   2.90215
 Alpha virt. eigenvalues --    2.90266   2.91051   2.91654   2.92240   2.92494
 Alpha virt. eigenvalues --    2.92557   2.92656   2.93216   2.94381   2.95004
 Alpha virt. eigenvalues --    2.95073   2.95326   2.95748   2.96552   2.96772
 Alpha virt. eigenvalues --    2.99348   3.00120   3.00467   3.00774   3.01564
 Alpha virt. eigenvalues --    3.01676   3.01910   3.02459   3.02810   3.03266
 Alpha virt. eigenvalues --    3.03480   3.03565   3.03643   3.06214   3.07138
 Alpha virt. eigenvalues --    3.07303   3.09578   3.09642   3.10187   3.11148
 Alpha virt. eigenvalues --    3.18779   3.19218   3.19493   3.20344   3.20790
 Alpha virt. eigenvalues --    3.21915   3.22262   3.23133   3.24050   3.24425
 Alpha virt. eigenvalues --    3.26813   3.27341   3.30277   3.30663   3.30789
 Alpha virt. eigenvalues --    3.31406   3.32536   3.33773   3.34437   3.44018
 Alpha virt. eigenvalues --    3.44654   3.44927   3.45159   3.47068   3.47495
 Alpha virt. eigenvalues --    3.48329   3.48812   3.50007   3.50488   3.51134
 Alpha virt. eigenvalues --    3.51291   3.53972   3.54748   3.54793   3.55451
 Alpha virt. eigenvalues --    3.57443   3.57717   3.58444   3.58648   3.58972
 Alpha virt. eigenvalues --    3.59745   3.60067   3.60131   3.61213   3.62243
 Alpha virt. eigenvalues --    3.67551   3.70127   3.70886   3.70997   3.72727
 Alpha virt. eigenvalues --    3.72790   3.73865   3.74867   3.74877   3.81186
 Alpha virt. eigenvalues --    3.89269   3.89291   3.91589   3.91626   3.95494
 Alpha virt. eigenvalues --    3.95516   3.96507   3.97270   4.06726   4.07312
 Alpha virt. eigenvalues --    4.07392   4.08572   4.09105   4.09529   4.12300
 Alpha virt. eigenvalues --    4.12358   4.17271   4.17453   4.20463   4.21374
 Alpha virt. eigenvalues --    4.21649   4.21817   4.22284   4.22961   4.23156
 Alpha virt. eigenvalues --    4.23999   4.24027   4.24198   4.25625   4.28506
 Alpha virt. eigenvalues --    4.28817   4.29142   4.43297   4.43320   4.57658
 Alpha virt. eigenvalues --    4.93693   4.94805   4.94814   4.95478   4.95513
 Alpha virt. eigenvalues --    4.96643   5.19856   5.20461   5.20719   5.25026
 Alpha virt. eigenvalues --   23.59398  23.63349  23.66814  23.68138  23.68162
 Alpha virt. eigenvalues --   23.77803  24.03346  24.03356  24.04667  24.06930
 Alpha virt. eigenvalues --   24.07229  24.07309  24.07723  24.07795  24.07861
 Alpha virt. eigenvalues --   24.07987  24.08092  24.08145  24.08518  24.08524
 Alpha virt. eigenvalues --   24.17477  24.20953  24.21457  24.21474  24.21849
 Alpha virt. eigenvalues --   24.21857  24.24278  24.24288  24.25236  24.25243
 Alpha virt. eigenvalues --   24.26378  24.26394  24.32305  24.33572  24.33604
 Alpha virt. eigenvalues --   24.34014  24.34203  24.34246  35.79757  35.80037
          Condensed to atoms (all electrons):
 Mulliken charges:
               1
     1  N   -0.517942
     2  C    0.123797
     3  C   -0.103231
     4  C   -0.086108
     5  C   -0.052340
     6  C   -0.085844
     7  C   -0.103909
     8  H    0.127691
     9  H    0.111734
    10  H    0.111892
    11  H    0.128154
    12  C    0.122490
    13  C   -0.107532
    14  C   -0.099007
    15  C   -0.097902
    16  C   -0.104532
    17  C   -0.092014
    18  H    0.125797
    19  H    0.107470
    20  H    0.097146
    21  H    0.121172
    22  C    0.119903
    23  C   -0.106420
    24  C   -0.104243
    25  C   -0.112267
    26  C   -0.103879
    27  C   -0.108215
    28  H    0.128863
    29  H    0.109558
    30  H    0.106715
    31  H    0.109628
    32  H    0.128718
    33  N   -0.518004
    34  C    0.124040
    35  C   -0.103352
    36  C   -0.085903
    37  C   -0.052234
    38  C   -0.086131
    39  C   -0.104107
    40  H    0.127742
    41  H    0.111743
    42  H    0.111896
    43  H    0.128209
    44  C    0.121860
    45  C   -0.106977
    46  C   -0.098940
    47  C   -0.097350
    48  C   -0.104715
    49  C   -0.092471
    50  H    0.125763
    51  H    0.107475
    52  H    0.097122
    53  H    0.121211
    54  C    0.120976
    55  C   -0.107285
    56  C   -0.104281
    57  C   -0.112300
    58  C   -0.103885
    59  C   -0.108290
    60  H    0.129000
    61  H    0.109523
    62  H    0.106685
    63  H    0.109613
    64  H    0.128774
    65  C   -0.283964
    66  H    0.122586
    67  H    0.139553
    68  H    0.126437
    69  C   -0.283925
    70  H    0.121863
    71  H    0.139550
    72  H    0.127154
 Sum of Mulliken charges =   0.00000
 Mulliken charges with hydrogens summed into heavy atoms:
               1
     1  N   -0.517942
     2  C    0.123797
     3  C    0.024459
     4  C    0.025626
     5  C   -0.052340
     6  C    0.026049
     7  C    0.024245
    12  C    0.122490
    13  C    0.018265
    14  C    0.008462
    15  C   -0.000757
    16  C   -0.104532
    17  C    0.029158
    22  C    0.119903
    23  C    0.022443
    24  C    0.005315
    25  C   -0.005552
    26  C    0.005749
    27  C    0.020503
    33  N   -0.518004
    34  C    0.124040
    35  C    0.024390
    36  C    0.025840
    37  C   -0.052234
    38  C    0.025765
    39  C    0.024102
    44  C    0.121860
    45  C    0.018785
    46  C    0.008535
    47  C   -0.000228
    48  C   -0.104715
    49  C    0.028740
    54  C    0.120976
    55  C    0.021715
    56  C    0.005242
    57  C   -0.005614
    58  C    0.005727
    59  C    0.020484
    65  C    0.104612
    69  C    0.104641
 Electronic spatial extent (au):  <R**2>=          60513.8428
 Charge=              0.0000 electrons
 Dipole moment (field-independent basis, Debye):
    X=              0.0033    Y=              0.0047    Z=             -0.0530  Tot=              0.0533
 Quadrupole moment (field-independent basis, Debye-Ang):
   XX=           -219.0553   YY=           -215.6723   ZZ=           -226.9838
   XY=              3.8217   XZ=              1.2064   YZ=              3.7521
 Traceless Quadrupole moment (field-independent basis, Debye-Ang):
   XX=              1.5152   YY=              4.8982   ZZ=             -6.4134
   XY=              3.8217   XZ=              1.2064   YZ=              3.7521
 Octapole moment (field-independent basis, Debye-Ang**2):
  XXX=           3283.1290  YYY=            247.5346  ZZZ=            -40.8160  XYY=           1102.6607
  XXY=             36.6711  XXZ=            -12.1175  XZZ=           1104.8166  YZZ=             81.1424
  YYZ=            -23.6115  XYZ=            -60.3023
 Hexadecapole moment (field-independent basis, Debye-Ang**3):
 XXXX=         -71876.1822 YYYY=          -6839.7971 ZZZZ=          -2772.1045 XXXY=          -2946.2771
 XXXZ=            -96.9452 YYYX=          -3279.3821 YYYZ=           -529.1039 ZZZX=             -6.0477
 ZZZY=           -639.9074 XXYY=         -13056.3188 XXZZ=         -12286.6705 YYZZ=          -1628.5998
 XXYZ=            362.8396 YYXZ=            114.5439 ZZXY=          -1104.9345
 N-N= 3.872566753456D+03 E-N=-1.140526634056D+04  KE= 1.570137491365D+03
 No NMR shielding tensors so no spin-rotation constants.
 Leave Link  601 at Tue Jun 15 15:27:25 2021, MaxMem=  7864320000 cpu:               0.9 elap:               0.9
 (Enter /sw/linux/gaussian/g16/g16/l602.exe)
 FitSet:  NAtFit=    72 NAtPot=    72 NAtFrz=     0 MDM=    76 TotChg=   0.00000
 Merz-Kollman atomic radii used.

 **********************************************************************

            Electrostatic Properties Using The SCF Density.

 **********************************************************************

       Atomic Center    1 is at  -0.032210 -0.038430  0.087210
       Atomic Center    2 is at  -1.442030 -0.134110  0.093010
       Atomic Center    3 is at  -2.204420  0.538120 -0.863830
       Atomic Center    4 is at  -3.586740  0.450870 -0.847540
       Atomic Center    5 is at  -4.255690 -0.323290  0.103480
       Atomic Center    6 is at  -3.482260 -0.999920  1.049430
       Atomic Center    7 is at  -2.100440 -0.901230  1.055500
       Atomic Center    8 is at  -1.706370  1.142610 -1.612760
       Atomic Center    9 is at  -4.158800  1.002450 -1.585800
       Atomic Center   10 is at  -3.969760 -1.622980  1.791500
       Atomic Center   11 is at  -1.520870 -1.433170  1.800820
       Atomic Center   12 is at   0.589980  1.204810 -0.177220
       Atomic Center   13 is at   1.716150  1.271630 -0.998740
       Atomic Center   14 is at   2.318200  2.497260 -1.238400
       Atomic Center   15 is at   1.800420  3.662320 -0.686850
       Atomic Center   16 is at   0.669630  3.612510  0.126760
       Atomic Center   17 is at   0.082510  2.377090  0.383540
       Atomic Center   18 is at   2.115460  0.364300 -1.435960
       Atomic Center   19 is at   3.196270  2.544420 -1.872910
       Atomic Center   20 is at   2.277390  4.615960 -0.887300
       Atomic Center   21 is at  -0.788800  2.318030  1.027410
       Atomic Center   22 is at   0.756480 -1.183070  0.345210
       Atomic Center   23 is at   1.901320 -1.088750  1.139520
       Atomic Center   24 is at   2.677730 -2.212560  1.382120
       Atomic Center   25 is at   2.317300 -3.447770  0.856570
       Atomic Center   26 is at   1.172900 -3.545160  0.073820
       Atomic Center   27 is at   0.401430 -2.422950 -0.190810
       Atomic Center   28 is at   2.179470 -0.129100  1.559100
       Atomic Center   29 is at   3.564780 -2.122500  1.999140
       Atomic Center   30 is at   2.921800 -4.324970  1.054760
       Atomic Center   31 is at   0.882730 -4.500960 -0.348010
       Atomic Center   32 is at  -0.484250 -2.500420 -0.810470
       Atomic Center   33 is at  -9.956570 -0.722070  0.114580
       Atomic Center   34 is at  -8.547200 -0.620200  0.113460
       Atomic Center   35 is at  -7.835740 -0.623430 -1.087640
       Atomic Center   36 is at  -6.453270 -0.538250 -1.084700
       Atomic Center   37 is at  -5.734060 -0.424320  0.107380
       Atomic Center   38 is at  -6.456980 -0.409960  1.302420
       Atomic Center   39 is at  -7.838200 -0.517180  1.311440
       Atomic Center   40 is at  -8.373470 -0.709250 -2.024570
       Atomic Center   41 is at  -5.920770 -0.569110 -2.029160
       Atomic Center   42 is at  -5.929910 -0.305570  2.244650
       Atomic Center   43 is at  -8.378130 -0.506930  2.251000
       Atomic Center   44 is at -10.599630 -1.614880 -0.775630
       Atomic Center   45 is at -11.762990 -1.230990 -1.444420
       Atomic Center   46 is at -12.384490 -2.122040 -2.305460
       Atomic Center   47 is at -11.850420 -3.385520 -2.526080
       Atomic Center   48 is at -10.683310 -3.778880 -1.873630
       Atomic Center   49 is at -10.075770 -2.889380 -0.992080
       Atomic Center   50 is at -12.174960 -0.242640 -1.279240
       Atomic Center   51 is at -13.291020 -1.822150 -2.819350
       Atomic Center   52 is at -12.343040 -4.071120 -3.207510
       Atomic Center   53 is at  -9.175220 -3.184790 -0.463840
       Atomic Center   54 is at -10.723570  0.058510  1.009500
       Atomic Center   55 is at -11.831410 -0.492090  1.657610
       Atomic Center   56 is at -12.587560  0.280560  2.527020
       Atomic Center   57 is at -12.242580  1.602930  2.780110
       Atomic Center   58 is at -11.134500  2.149480  2.143500
       Atomic Center   59 is at -10.384290  1.390570  1.257000
       Atomic Center   60 is at -12.097280 -1.525810  1.470400
       Atomic Center   61 is at -13.446050 -0.161110  3.020580
       Atomic Center   62 is at -12.830970  2.201140  3.465770
       Atomic Center   63 is at -10.856870  3.181560  2.326320
       Atomic Center   64 is at  -9.527490  1.823440  0.754080
       Atomic Center   65 is at   0.079760  4.869590  0.711530
       Atomic Center   66 is at   0.838770  5.645470  0.831450
       Atomic Center   67 is at  -0.702630  5.268420  0.058130
       Atomic Center   68 is at  -0.371860  4.679830  1.687660
       Atomic Center   69 is at -10.075920 -5.135520 -2.120150
       Atomic Center   70 is at -10.827260 -5.850850 -2.460840
       Atomic Center   71 is at  -9.299760 -5.076400 -2.889670
       Atomic Center   72 is at  -9.611660 -5.533050 -1.214910
    2739 points will be used for fitting atomic charges
 Fitting point charges to electrostatic potential
 Charges from ESP fit, RMS=   0.00135 RRMS=   0.15871:
 ESP charges:
               1
     1  N   -0.629283
     2  C    0.464190
     3  C   -0.290784
     4  C   -0.136228
     5  C    0.009850
     6  C   -0.132328
     7  C   -0.306665
     8  H    0.156980
     9  H    0.136741
    10  H    0.137513
    11  H    0.162722
    12  C    0.548509
    13  C   -0.367476
    14  C   -0.060742
    15  C   -0.388147
    16  C    0.390491
    17  C   -0.494153
    18  H    0.166613
    19  H    0.141609
    20  H    0.177774
    21  H    0.187775
    22  C    0.463046
    23  C   -0.258886
    24  C   -0.118780
    25  C   -0.199756
    26  C   -0.097895
    27  C   -0.289502
    28  H    0.141998
    29  H    0.138937
    30  H    0.141514
    31  H    0.134774
    32  H    0.150792
    33  N   -0.619334
    34  C    0.503122
    35  C   -0.354972
    36  C   -0.095960
    37  C    0.004099
    38  C   -0.129857
    39  C   -0.323027
    40  H    0.182502
    41  H    0.128583
    42  H    0.139102
    43  H    0.166315
    44  C    0.441984
    45  C   -0.355561
    46  C   -0.026406
    47  C   -0.389104
    48  C    0.355114
    49  C   -0.426823
    50  H    0.173842
    51  H    0.127763
    52  H    0.177569
    53  H    0.183579
    54  C    0.474974
    55  C   -0.302813
    56  C   -0.087876
    57  C   -0.205368
    58  C   -0.113271
    59  C   -0.274839
    60  H    0.163893
    61  H    0.130345
    62  H    0.142514
    63  H    0.140696
    64  H    0.147023
    65  C   -0.490492
    66  H    0.130138
    67  H    0.140198
    68  H    0.136671
    69  C   -0.472555
    70  H    0.129929
    71  H    0.135516
    72  H    0.131583
 Sum of ESP charges =   0.00000
 ESP charges with hydrogens summed into heavy atoms:
               1
     1  N   -0.629283
     2  C    0.464190
     3  C   -0.133804
     4  C    0.000513
     5  C    0.009850
     6  C    0.005185
     7  C   -0.143943
    12  C    0.548509
    13  C   -0.200862
    14  C    0.080866
    15  C   -0.210373
    16  C    0.390491
    17  C   -0.306378
    22  C    0.463046
    23  C   -0.116888
    24  C    0.020158
    25  C   -0.058242
    26  C    0.036879
    27  C   -0.138711
    33  N   -0.619334
    34  C    0.503122
    35  C   -0.172470
    36  C    0.032623
    37  C    0.004099
    38  C    0.009244
    39  C   -0.156713
    44  C    0.441984
    45  C   -0.181720
    46  C    0.101358
    47  C   -0.211535
    48  C    0.355114
    49  C   -0.243244
    54  C    0.474974
    55  C   -0.138920
    56  C    0.042469
    57  C   -0.062853
    58  C    0.027425
    59  C   -0.127817
    65  C   -0.083485
    69  C   -0.075526
 Charge=   0.00000 Dipole=     0.0028     0.0095    -0.0517 Tot=     0.0526
 -----------------------------------------------------------------

              Electrostatic Properties (Atomic Units)

 -----------------------------------------------------------------
    Center     Electric         -------- Electric Field --------
               Potential          X             Y             Z
 -----------------------------------------------------------------
    1 Atom    -18.361275
    2 Atom    -14.731296
    3 Atom    -14.777552
    4 Atom    -14.774914
    5 Atom    -14.767277
    6 Atom    -14.774903
    7 Atom    -14.777498
    8 Atom     -1.105846
    9 Atom     -1.107116
   10 Atom     -1.107152
   11 Atom     -1.105756
   12 Atom    -14.732540
   13 Atom    -14.781539
   14 Atom    -14.776341
   15 Atom    -14.783570
   16 Atom    -14.765612
   17 Atom    -14.782590
   18 Atom     -1.108259
   19 Atom     -1.109455
   20 Atom     -1.111313
   21 Atom     -1.107956
   22 Atom    -14.731187
   23 Atom    -14.778682
   24 Atom    -14.775043
   25 Atom    -14.779788
   26 Atom    -14.774997
   27 Atom    -14.778541
   28 Atom     -1.107022
   29 Atom     -1.108485
   30 Atom     -1.110072
   31 Atom     -1.108433
   32 Atom     -1.106740
   33 Atom    -18.361240
   34 Atom    -14.731272
   35 Atom    -14.777566
   36 Atom    -14.774922
   37 Atom    -14.767275
   38 Atom    -14.774874
   39 Atom    -14.777468
   40 Atom     -1.105857
   41 Atom     -1.107104
   42 Atom     -1.107140
   43 Atom     -1.105732
   44 Atom    -14.732512
   45 Atom    -14.781456
   46 Atom    -14.776296
   47 Atom    -14.783479
   48 Atom    -14.765567
   49 Atom    -14.782548
   50 Atom     -1.108205
   51 Atom     -1.109394
   52 Atom     -1.111279
   53 Atom     -1.107878
   54 Atom    -14.731162
   55 Atom    -14.778739
   56 Atom    -14.775090
   57 Atom    -14.779856
   58 Atom    -14.775025
   59 Atom    -14.778564
   60 Atom     -1.107068
   61 Atom     -1.108534
   62 Atom     -1.110116
   63 Atom     -1.108468
   64 Atom     -1.106766
   65 Atom    -14.777507
   66 Atom     -1.116549
   67 Atom     -1.114623
   68 Atom     -1.116336
   69 Atom    -14.777476
   70 Atom     -1.116598
   71 Atom     -1.114615
   72 Atom     -1.116199
 -----------------------------------------------------------------
 Leave Link  602 at Tue Jun 15 15:27:26 2021, MaxMem=  7864320000 cpu:               1.5 elap:               1.6
 (Enter /sw/linux/gaussian/g16/g16/l9999.exe)
 1\1\GINC-THINC348\SP\RwB97XD\6-311G(d,p)\C38H32N2\LINK\15-Jun-2021\0\\
 #P wb97xd/6-311g(d,p) nosymm pop=MK\\Title Card Required\\0,1\N,0,-0.0
 3221,-0.03843,0.08721\C,0,-1.44203,-0.13411,0.09301\C,0,-2.20442,0.538
 12,-0.86383\C,0,-3.58674,0.45087,-0.84754\C,0,-4.25569,-0.32329,0.1034
 8\C,0,-3.48226,-0.99992,1.04943\C,0,-2.10044,-0.90123,1.0555\H,0,-1.70
 637,1.14261,-1.61276\H,0,-4.1588,1.00245,-1.5858\H,0,-3.96976,-1.62298
 ,1.7915\H,0,-1.52087,-1.43317,1.80082\C,0,0.58998,1.20481,-0.17722\C,0
 ,1.71615,1.27163,-0.99874\C,0,2.3182,2.49726,-1.2384\C,0,1.80042,3.662
 32,-0.68685\C,0,0.66963,3.61251,0.12676\C,0,0.08251,2.37709,0.38354\H,
 0,2.11546,0.3643,-1.43596\H,0,3.19627,2.54442,-1.87291\H,0,2.27739,4.6
 1596,-0.8873\H,0,-0.7888,2.31803,1.02741\C,0,0.75648,-1.18307,0.34521\
 C,0,1.90132,-1.08875,1.13952\C,0,2.67773,-2.21256,1.38212\C,0,2.3173,-
 3.44777,0.85657\C,0,1.1729,-3.54516,0.07382\C,0,0.40143,-2.42295,-0.19
 081\H,0,2.17947,-0.1291,1.5591\H,0,3.56478,-2.1225,1.99914\H,0,2.9218,
 -4.32497,1.05476\H,0,0.88273,-4.50096,-0.34801\H,0,-0.48425,-2.50042,-
 0.81047\N,0,-9.95657,-0.72207,0.11458\C,0,-8.5472,-0.6202,0.11346\C,0,
 -7.83574,-0.62343,-1.08764\C,0,-6.45327,-0.53825,-1.0847\C,0,-5.73406,
 -0.42432,0.10738\C,0,-6.45698,-0.40996,1.30242\C,0,-7.8382,-0.51718,1.
 31144\H,0,-8.37347,-0.70925,-2.02457\H,0,-5.92077,-0.56911,-2.02916\H,
 0,-5.92991,-0.30557,2.24465\H,0,-8.37813,-0.50693,2.251\C,0,-10.59963,
 -1.61488,-0.77563\C,0,-11.76299,-1.23099,-1.44442\C,0,-12.38449,-2.122
 04,-2.30546\C,0,-11.85042,-3.38552,-2.52608\C,0,-10.68331,-3.77888,-1.
 87363\C,0,-10.07577,-2.88938,-0.99208\H,0,-12.17496,-0.24264,-1.27924\
 H,0,-13.29102,-1.82215,-2.81935\H,0,-12.34304,-4.07112,-3.20751\H,0,-9
 .17522,-3.18479,-0.46384\C,0,-10.72357,0.05851,1.0095\C,0,-11.83141,-0
 .49209,1.65761\C,0,-12.58756,0.28056,2.52702\C,0,-12.24258,1.60293,2.7
 8011\C,0,-11.1345,2.14948,2.1435\C,0,-10.38429,1.39057,1.257\H,0,-12.0
 9728,-1.52581,1.4704\H,0,-13.44605,-0.16111,3.02058\H,0,-12.83097,2.20
 114,3.46577\H,0,-10.85687,3.18156,2.32632\H,0,-9.52749,1.82344,0.75408
 \C,0,0.07976,4.86959,0.71153\H,0,0.83877,5.64547,0.83145\H,0,-0.70263,
 5.26842,0.05813\H,0,-0.37186,4.67983,1.68766\C,0,-10.07592,-5.13552,-2
 .12015\H,0,-10.82726,-5.85085,-2.46084\H,0,-9.29976,-5.0764,-2.88967\H
 ,0,-9.61166,-5.53305,-1.21491\\Version=ES64L-G16RevB.01\HF=-1576.66826
 37\RMSD=3.916e-09\Dipole=0.0012954,0.0018659,-0.020834\Quadrupole=1.12
 64923,3.6416768,-4.7681691,2.8413117,0.8969332,2.7895967\PG=C01 [X(C38
 H32N2)]\\@


 THERE ARE PEOPLE SO ADDICTED TO EXAGERATING THEY
 CAN'T TELL THE TRUTH WITHOUT LYING. -- FORTUNE COOKIE
 Job cpu time:       0 days  0 hours 40 minutes 58.7 seconds.
 Elapsed time:       0 days  0 hours 40 minutes 58.8 seconds.
 File lengths (MBytes):  RWF=    452 Int=      0 D2E=      0 Chk=     49 Scr=      1
 Normal termination of Gaussian 16 at Tue Jun 15 15:27:27 2021.
