62
nN.log	Energy: -938547.3530738
N         -1.75487       -0.26878        0.01275
C         -0.90920       -0.25150       -1.09133
C          0.35614        0.21967       -0.69229
C          0.26835        0.50063        0.72444
C         -1.04611        0.18689        1.11931
C         -1.17922       -0.58988       -2.41519
C         -0.14849       -0.46303       -3.33258
C          1.11910       -0.00764       -2.95038
C          1.37605        0.33845       -1.63424
C          1.17866        0.96945        1.66953
C          0.76850        1.11293        2.98456
C         -0.53909        0.78494        3.36259
C         -1.46294        0.31675        2.44199
H         -2.16056       -0.93305       -2.71935
H         -0.33104       -0.71984       -4.36989
H          1.90221        0.07827       -3.69435
H          2.35499        0.70003       -1.33951
H          2.19397        1.21468        1.37812
H          1.46448        1.47748        3.73080
H         -0.83696        0.89601        4.39904
H         -2.47019        0.05516        2.74256
C         -3.10763       -0.68094        0.01066
C         -3.44979       -1.95692       -0.42775
C         -4.77806       -2.35315       -0.43920
C         -5.78813       -1.49733        0.00529
C         -5.42815       -0.22440        0.45286
C         -4.10447        0.18709        0.44677
H         -2.67010       -2.63182       -0.76086
H         -5.03579       -3.34019       -0.80679
H         -6.19363        0.45103        0.81837
H         -3.83457        1.18171        0.78185
C         -7.20699       -1.92919        0.00155
C         -7.56622       -3.21202        0.42052
C         -8.88990       -3.62336        0.40721
C         -9.88745       -2.74563       -0.00734
C         -9.54604       -1.45995       -0.41705
C         -8.21779       -1.06348       -0.42162
H         -6.80012       -3.89559        0.76924
H         -9.15921       -4.62540        0.71986
H        -10.32630       -0.77770       -0.73343
H         -7.96068       -0.06828       -0.76697
N        -11.24018       -3.15785       -0.01260
C        -12.08771       -3.14909       -1.11536
C        -13.35235       -3.62970       -0.72542
C        -13.26217       -3.94405        0.68412
C        -11.94706       -3.63959        1.08408
C        -11.81998       -2.77955       -2.43134
C        -12.85225       -2.88490       -3.34973
C        -14.11915       -3.34936       -2.97624
C        -14.37384       -3.72640       -1.66817
C        -14.17086       -4.43522        1.61936
C        -13.75851       -4.60975        2.92995
C        -12.45032       -4.29061        3.31344
C        -11.52805       -3.80064        2.40264
H        -10.83920       -2.42911       -2.72895
H        -12.67148       -2.60369       -4.38101
H        -14.90352       -3.41784       -3.72070
H        -15.35224       -4.09496       -1.38039
H        -15.18663       -4.67362        1.32391
H        -14.45321       -4.99195        3.66851
H        -12.15071       -4.42613        4.34648
H        -10.52033       -3.54610        2.70768
