119
nN.log	Energy: -1809905.2061653
C         -1.26259       -1.83196        0.19486
C         -2.53128       -1.25856        0.06280
H         -2.63754       -0.18747       -0.07537
C         -3.64744       -2.07070        0.08168
C         -3.53347       -3.45514        0.22720
C         -2.27912       -4.03710        0.35654
H         -2.17162       -5.10946        0.47781
C         -1.15601       -3.22118        0.34029
H         -0.17370       -3.66347        0.46476
C         -5.10648       -1.66097       -0.04866
C         -4.88091       -4.03937        0.20910
C         -5.80968       -3.00635        0.04947
C         -7.16640       -3.27054       -0.00152
H         -7.88014       -2.46317       -0.12577
C         -7.59323       -4.59087        0.10965
H         -8.65238       -4.81877        0.07215
C         -6.67122       -5.62349        0.26879
H         -7.02210       -6.64580        0.35367
C         -5.30745       -5.35693        0.31973
H         -4.59346       -6.16389        0.44365
C         -5.94616        0.35581       -1.04830
C         -5.41064       -0.90355       -1.33231
C         -5.21556       -1.31662       -2.63797
H         -4.79794       -2.29519       -2.84929
C         -5.56477       -0.45057       -3.67006
H         -5.41916       -0.75510       -4.70018
C         -6.09928        0.80589       -3.39172
H         -6.36494        1.46730       -4.20864
C         -6.29448        1.21997       -2.07878
H         -6.71021        2.19909       -1.86702
C         -5.54812       -0.65978        1.00792
C         -6.03141        0.50809        0.41119
C         -6.48484        1.56177        1.19494
H         -6.86119        2.47148        0.73978
C         -6.44727        1.42908        2.57862
H         -6.79729        2.24123        3.20578
C         -5.96452        0.26282        3.16917
H         -5.94341        0.17795        4.24970
C         -5.50998       -0.79306        2.38431
H         -5.13296       -1.70297        2.83896
C         -0.04751       -0.98210        0.18435
C          1.09928       -1.39151       -0.50373
H          1.10216       -2.32375       -1.05921
C          2.21996       -0.58578       -0.49312
C          2.22957        0.63314        0.18986
C          1.09620        1.05214        0.87467
H          1.08755        1.99152        1.41657
C         -0.03067        0.24124        0.86652
H         -0.91244        0.54832        1.41810
C          3.55919       -0.83456       -1.16984
C          3.54823        1.25385        0.01720
C          4.33455        0.41287       -0.77460
C          5.63398        0.74557       -1.10042
H          6.23799        0.06895       -1.69624
C          6.17326        1.94795       -0.63171
C          5.37889        2.78620        0.16110
H          5.78980        3.72860        0.50616
C          4.07273        2.44978        0.49010
H          3.47484        3.11853        1.09956
C          4.46932       -2.95456       -1.83898
C          4.22614       -2.13094       -0.73628
C          4.57892       -2.52785        0.54102
H          4.38752       -1.88165        1.39102
C          5.18392       -3.77001        0.70945
H          5.46914       -4.09914        1.70215
C          5.42814       -4.59473       -0.38694
H          5.90092       -5.55873       -0.23660
C          5.07316       -4.19429       -1.67035
H          5.26562       -4.83942       -2.52071
C          3.45569       -1.03283       -2.67430
C          3.98989       -2.26924       -3.04779
C          3.99944       -2.65623       -4.38200
H          4.41179       -3.61400       -4.68034
C          3.46839       -1.79063       -5.33185
H          3.46680       -2.07647       -6.37765
C          2.93654       -0.55906       -4.95466
H          2.52576        0.10157       -5.70962
C          2.92683       -0.17081       -3.61805
H          2.51308        0.78633       -3.31902
C          7.56533        2.33072       -0.96998
C          8.39596        2.91025       -0.00562
H          8.03755        3.06212        1.00735
C          9.68677        3.26198       -0.34588
C         10.18031        3.04724       -1.63476
C          9.36625        2.47030       -2.60083
H          9.72974        2.30260       -3.60878
C          8.06705        2.11847       -2.26056
H          7.41602        1.68918       -3.01417
C         10.74947        3.89467        0.53950
C         11.57039        3.51875       -1.68734
C         11.91727        4.01660       -0.42761
C         13.17881        4.53057       -0.18802
H         13.43964        4.91456        0.79242
C         14.10246        4.54345       -1.22943
H         15.09651        4.94212       -1.06195
C         13.76121        4.04816       -2.48642
H         14.49361        4.06625       -3.28561
C         12.49272        3.53153       -2.72629
H         12.23166        3.14701       -3.70626
C         10.37450        5.16527        2.54362
C         10.31664        5.21976        1.14817
C          9.90335        6.36797        0.49668
H          9.86137        6.40123       -0.58679
C          9.54419        7.47504        1.26019
H          9.21808        8.38461        0.76877
C          9.60037        7.42534        2.65171
H          9.31702        8.29741        3.23020
C         10.01579        6.27041        3.30527
H         10.05769        6.23640        4.38853
C         11.06756        3.07766        1.78251
C         10.84319        3.82943        2.93922
C         11.06757        3.27413        4.19271
H         10.89541        3.85047        5.09525
C         11.51786        1.96087        4.26999
H         11.69780        1.51100        5.23984
C         11.73996        1.21512        3.11395
H         12.09016        0.19240        3.19464
C         11.51518        1.77100        1.85792
H         11.68532        1.19431        0.95506
