65
nN.log	Energy: -1282778.7619548
N         -2.57988        0.66434       -0.38210
C         -3.75189       -0.03364       -0.67229
C         -4.71538        0.27018        0.30662
C         -4.09573        1.19488        1.23273
C         -2.78267        1.41171        0.77642
C         -4.01373       -0.93332       -1.70332
C         -5.27413       -1.50825       -1.74647
C         -6.24988       -1.20456       -0.79039
C         -5.97527       -0.32069        0.24015
C         -4.54483        1.85069        2.37682
C         -3.68410        2.70940        3.04005
C         -2.38577        2.92457        2.56410
C         -1.91605        2.28516        1.42772
H         -3.26452       -1.18562       -2.44449
H         -5.50391       -2.21196       -2.53855
H         -7.22572       -1.67081       -0.85609
H         -6.72716       -0.09378        0.98766
H         -5.55467        1.69279        2.73864
H         -4.01776        3.22580        3.93217
H         -1.73169        3.60923        3.09153
H         -0.91464        2.47072        1.05912
C         -0.18287        0.27775       -0.51040
C          0.97982        0.15100       -1.26415
C          0.93587        0.29969       -2.64987
C         -0.27156        0.62873       -3.23876
C         -1.39147        0.58444       -1.13175
C         -1.43388        0.79700       -2.50403
H         -0.14934        0.13034        0.56210
H          1.82335        0.16320       -3.25538
H         -2.35959        1.08698       -2.98462
N          2.19788       -0.16120       -0.63024
C          3.39079        0.54821       -0.77114
C          4.37680       -0.05798        0.02807
C          3.75230       -1.18951        0.68012
C          2.41288       -1.22047        0.25058
C          3.65572        1.69292       -1.51809
C          4.94024        2.21044       -1.46235
C          5.93634        1.61311       -0.68171
C          5.66037        0.48202        0.06821
C          4.21722       -2.16413        1.56013
C          3.34645       -3.15136        1.99092
C          2.02149       -3.17687        1.54185
C          1.53537       -2.21865        0.66612
H          2.89171        2.16825       -2.12083
H          5.17468        3.09871       -2.03743
H          6.93023        2.04413       -0.66340
H          6.42910        0.02372        0.68032
H          5.24733       -2.15032        1.89827
H          3.69257       -3.91513        2.67707
H          1.35832       -3.96364        1.88260
H          0.51130       -2.25570        0.31541
S         -0.37676        0.74703       -5.02454
C         -1.18458       -0.79816       -5.42347
C         -2.57072       -0.82905       -5.50921
C         -0.41434       -1.94271       -5.58088
C         -3.19878       -2.04376       -5.75111
H         -3.13911        0.08737       -5.40575
C         -1.05437       -3.15018       -5.82500
H          0.66581       -1.88008       -5.52660
C         -2.44205       -3.20045       -5.90372
H         -4.27893       -2.08422       -5.82689
H         -0.46886       -4.05222       -5.95636
H         -2.93629       -4.14642       -6.09250
O         -1.29573        1.82412       -5.34686
O          0.97871        0.70921       -5.54477
