56
nN.log	Energy: -821255.0617223
C         -4.06770       -1.62778       -0.05638
C         -2.71583       -1.62102       -0.19600
C         -1.96708       -0.40562       -0.08759
C         -0.57288       -0.38449       -0.23808
C          0.13288        0.82055       -0.10898
C          1.55754        0.87420       -0.23948
C          2.22982        2.04937       -0.12060
C          1.52648        3.25844        0.13518
C          0.17461        3.25168        0.27479
C         -0.57413        2.03628        0.16642
C         -1.96836        2.01518        0.31673
C         -2.67409        0.81009        0.18790
C         -4.09873        0.75640        0.31861
C         -4.77102       -0.41875        0.19962
H         -4.61694       -2.55857       -0.14109
H         -2.18235       -2.54280       -0.39328
H          2.09518       -0.04517       -0.43667
H          3.30897        2.06938       -0.22189
H          2.07572        4.18924        0.21982
H         -0.35887        4.17344        0.47217
H         -4.63632        1.67571        0.51624
H         -5.85015       -0.43880        0.30105
C         -2.70400        3.28019        0.60950
C         -2.91541        3.66697        1.90866
C         -3.60810        4.85869        2.21254
C         -4.08353        5.65345        1.20781
C         -3.88833        5.29333       -0.14917
C         -4.37172        6.10054       -1.21024
C         -4.17414        5.73726       -2.51337
C         -3.48127        4.54525       -2.81996
C         -3.00244        3.74473       -1.81970
C         -3.19121        4.09393       -0.45729
H         -2.54152        3.04219        2.71240
H         -3.75943        5.13758        3.24908
H         -4.61689        6.57084        1.43438
H         -4.90329        7.01510       -0.96806
H         -4.54837        6.36247       -3.31606
H         -3.32939        4.26538       -3.85616
H         -2.47105        2.83056       -2.05708
C          0.16277       -1.64945       -0.53101
C          0.37453       -2.03602       -1.83009
C          1.06723       -3.22780       -2.13403
C          1.54231       -4.02275       -1.12937
C          1.34678       -3.66283        0.22769
C          1.82986       -4.47030        1.28866
C          1.63204       -4.10723        2.59185
C          0.93924       -2.91524        2.89847
C          0.46067       -2.11448        1.89822
C          0.64969       -2.46345        0.53586
H          0.00092       -1.41110       -2.63386
H          1.21879       -3.50642       -3.17061
H          2.07566       -4.94016       -1.35590
H          2.36138       -5.38485        1.04638
H          2.00602       -4.73260        3.39454
H          0.78716       -2.63547        3.93467
H         -0.07069       -1.20032        2.13574
