109
nN.log	Energy: -1518412.0231021
N         -0.00210        0.95041        0.38154
C          1.05477        0.32732        1.08170
C          2.26689        0.99085        1.28301
C          3.30891        0.37100        1.95145
C          3.15498       -0.91200        2.47751
C          1.93683       -1.56724        2.29533
C          0.90945       -0.96571        1.58829
H          2.39650        1.99354        0.89286
H          4.24837        0.89308        2.09132
H          1.80574       -2.56661        2.69382
H         -0.02627       -1.49262        1.44271
C          0.27074        1.73442       -0.76279
C         -0.38244        2.95140       -0.96339
C         -0.11709        3.71877       -2.08534
C          0.80759        3.29039       -3.03744
C          1.46108        2.07445       -2.83734
C          1.19705        1.30685       -1.71536
H         -1.09835        3.29901       -0.22779
H         -0.62595        4.66526       -2.22657
H          2.17742        1.72879       -3.57358
H          1.70596        0.36030       -1.57560
C         -1.33385        0.80941        0.83448
C         -2.37401        0.60541       -0.07384
C         -3.68016        0.47428        0.36635
C         -3.98281        0.54397        1.72619
C         -2.94377        0.74427        2.63458
C         -1.63663        0.87483        2.19526
H         -2.15125        0.54373       -1.13265
H         -4.47889        0.31147       -0.34794
H         -3.16745        0.80506        3.69336
H         -0.83965        1.03871        2.91111
N          4.21296       -1.53355        3.18362
C          4.93827       -0.79597        4.14705
C          4.27556        0.09060        4.99653
C          4.96974        0.84253        5.93999
C          6.34990        0.68044        6.04509
C          7.01511       -0.20844        5.20968
C          6.32312       -0.93848        4.25607
H          3.19879        0.19397        4.91248
H          6.90450        1.25047        6.78298
H          8.08977       -0.32651        5.29380
H          6.84527       -1.62367        3.59912
C          4.23416        1.82069        6.81887
H          4.10751        2.77985        6.30689
H          3.23899        1.45182        7.07715
H          4.77928        2.00899        7.74606
C          4.52704       -2.88671        2.92919
C          4.87527       -3.74463        3.97554
C          5.18617       -5.07164        3.71744
C          5.13590       -5.57143        2.42143
C          4.77866       -4.72242        1.38069
C          4.48514       -3.38898        1.62620
H          4.90458       -3.36281        4.98921
H          5.45631       -5.72328        4.54096
H          5.37172       -6.61061        2.22494
H          4.73990       -5.09614        0.36354
H          4.21707       -2.72815        0.81025
N          1.07939        4.07504       -4.18475
C          2.41832        4.28222       -4.58753
C          3.41222        4.49609       -3.63168
C          4.74157        4.68062       -4.00028
C          5.07041        4.67464       -5.35456
C          4.08424        4.47380       -6.31241
C          2.76514        4.26712       -5.94012
H          3.13767        4.51354       -2.58216
H          6.10019        4.82810       -5.65951
H          4.34762        4.46580       -7.36431
H          2.00005        4.09996       -6.68868
C          5.80078        4.86937       -2.94543
H          6.15523        3.90142       -2.57722
H          6.66324        5.40966       -3.34111
H          5.41347        5.42551       -2.08879
C          0.01105        4.64229       -4.91349
C         -1.17116        3.92355       -5.10830
C         -2.22622        4.48853       -5.80979
C         -2.11646        5.76682       -6.34407
C         -0.93791        6.48013       -6.15904
C          0.11537        5.93141       -5.44219
H         -1.25740        2.92230       -4.70287
H         -3.13694        3.91706       -5.95052
H         -2.93967        6.20224       -6.89803
H         -0.83949        7.48111       -6.56418
H          1.02754        6.49636       -5.29080
N         -5.32062        0.41720        2.17371
C         -6.34704        1.13114        1.51457
C         -6.12027        2.43355        1.06853
C         -7.10701        3.14973        0.39682
C         -8.34976        2.55318        0.19393
C         -8.58671        1.26058        0.64578
C         -7.59409        0.54230        1.29340
H         -5.15241        2.89010        1.24746
H         -9.13348        3.10143       -0.31806
H         -9.55468        0.80046        0.48067
H         -7.77806       -0.46926        1.63482
C         -6.82040        4.54028       -0.10778
H         -6.29421        4.50220       -1.06681
H         -7.74199        5.10654       -0.25656
H         -6.18929        5.09373        0.59137
C         -5.61229       -0.40725        3.28256
C         -4.95004       -1.62620        3.44855
C         -5.22418       -2.42761        4.54713
C         -6.17261       -2.04016        5.48625
C         -6.83896       -0.83198        5.31833
C         -6.55752       -0.01439        4.23353
H         -4.21751       -1.93749        2.71315
H         -4.69981       -3.36982        4.66127
H         -6.38968       -2.67209        6.33928
H         -7.57666       -0.51270        6.04609
H         -7.07126        0.93212        4.11382
