56
nN.log	Energy: -821254.1554982
C         -4.09935       -1.56587        0.04539
C         -2.74027       -1.56482        0.04142
C         -2.00120       -0.33902        0.01557
C         -0.59885       -0.32597        0.01770
C          0.09574        0.89237        0.02006
C          1.52622        0.94052        0.05054
C          2.18927        2.12687        0.05864
C          1.47029        3.35326        0.03339
C          0.11138        3.35385        0.00513
C         -0.62948        2.12844        0.00179
C         -2.03191        2.11475       -0.01501
C         -2.72717        0.89662       -0.00265
C         -4.15828        0.84665       -0.00363
C         -4.81991       -0.34040        0.02039
H         -4.64097       -2.50469        0.06788
H         -2.19339       -2.49957        0.05978
H          2.07614        0.00757        0.06901
H          3.27293        2.14237        0.08458
H          2.01301        4.29175        0.03735
H         -0.43318        4.28989       -0.01453
H         -4.71048        1.77820       -0.02304
H         -5.90390       -0.35706        0.02115
C         -2.78746        3.40069       -0.02545
C         -3.14057        4.00224       -1.20523
C         -3.85960        5.22356       -1.22303
C         -4.23272        5.85824       -2.43506
C         -4.92696        7.03658       -2.42154
C         -5.28368        7.64074       -1.19456
C         -4.93749        7.05196       -0.00956
C         -4.21790        5.83053        0.00908
C         -3.84234        5.19142        1.21758
C         -3.14908        4.01377        1.20169
H         -2.86685        3.53789       -2.14751
H         -3.95745        5.39189       -3.37533
H         -5.20723        7.51327       -3.35396
H         -5.83405        8.57467       -1.19791
H         -5.20970        7.51300        0.93434
H         -4.11473        5.65295        2.16121
H         -2.86512        3.52994        2.12970
C          0.15708       -1.61272        0.02820
C          0.51149       -2.21027       -1.15474
C          1.22714       -3.42682       -1.17297
C          1.58156       -4.03421       -0.00142
C          1.23647       -3.45294        1.24453
C          1.59242       -4.06309        2.47423
C          1.25110       -3.48797        3.66669
C          0.53490       -2.27082        3.68755
C          0.17670       -1.65694        2.51898
C          0.51597       -2.22831        1.26515
H          0.23446       -1.73492       -2.08932
H          1.49291       -3.87450       -2.12379
H          2.13187       -4.96938       -0.00820
H          2.14271       -4.99813        2.45138
H          1.52873       -3.96380        4.60038
H          0.26860       -1.82222        4.63780
H         -0.37281       -0.72304        2.53717
